==========================================
SLURM_CLUSTER_NAME = paramganga
SLURM_ARRAY_JOB_ID = 
SLURM_ARRAY_TASK_ID = 
SLURM_ARRAY_TASK_COUNT = 
SLURM_ARRAY_TASK_MAX = 
SLURM_ARRAY_TASK_MIN = 
SLURM_JOB_ACCOUNT = iitr
SLURM_JOB_ID = 173930
SLURM_JOB_NAME = 19280
SLURM_JOB_NODELIST = cn[129-130],hm014
SLURM_JOB_USER = garima.iitr
SLURM_JOB_UID = 38339
SLURM_JOB_PARTITION = small
SLURM_TASK_PID = 26537
SLURM_SUBMIT_DIR = /home/garima.iitr/.cache/.es/compmat/k5ak3h14
SLURM_CPUS_ON_NODE = 48
SLURM_NTASKS = 144
SLURM_TASK_PID = 26537
==========================================
cn129
 
:: initializing oneAPI environment ...
   slurm_script: BASH_VERSION = 4.2.46(2)-release
   args: Using "$@" for setvars.sh arguments: 
:: advisor -- latest
:: ccl -- latest
:: clck -- latest
:: compiler -- latest
:: dal -- latest
:: debugger -- latest
:: dev-utilities -- latest
:: dnnl -- latest
:: dpcpp-ct -- latest
:: dpl -- latest
:: inspector -- latest
:: intelpython -- latest
:: ipp -- latest
:: ippcp -- latest
:: ipp -- latest
:: itac -- latest
:: mkl -- latest
:: mpi -- latest
:: tbb -- latest
:: vpl -- latest
:: vtune -- latest
:: oneAPI environment initialized ::
 
Job execution start: Tue Nov 28 11:01:59 IST 2023
Job submitted by garima.iitr
The job ID is:173930

     Program PWSCF v.7.1 starts on 28Nov2023 at 11: 2: 2 

     This program is part of the open-source Quantum ESPRESSO suite
     for quantum simulation of materials; please cite
         "P. Giannozzi et al., J. Phys.:Condens. Matter 21 395502 (2009);
         "P. Giannozzi et al., J. Phys.:Condens. Matter 29 465901 (2017);
         "P. Giannozzi et al., J. Chem. Phys. 152 154105 (2020);
          URL http://www.quantum-espresso.org", 
     in publications or presentations arising from this work. More details at
     http://www.quantum-espresso.org/quote

     Parallel version (MPI & OpenMP), running on     144 processor cores
     Number of MPI processes:               144
     Threads/MPI process:                     1

     MPI processes distributed on     3 nodes
     217587 MiB available memory on the printing compute node when the environment starts
 
     Reading input from k5al3h14.in

     Current dimensions of program PWSCF are:
     Max number of different atomic species (ntypx) = 10
     Max number of k-points (npk) =  40000
     Max angular momentum in pseudopotentials (lmaxx) =  4
     file Al.pbe-n-kjpaw_psl.1.0.0.UPF: wavefunction(s)  3S 3P renormalized
     file K.pbe-spn-kjpaw_psl.1.0.0.UPF: wavefunction(s)  3S renormalized

     IMPORTANT: XC functional enforced from input :
     Exchange-correlation= PBE
                           (   1   4   3   4   0   0   0)
     Any further DFT definition will be discarded
     Please, verify this is what you really want

     Message from routine setup:
     using ibrav=0 with symmetry is DISCOURAGED, use correct ibrav instead
 
     K-points division:     npool     =       3
     R & G space division:  proc/nbgrp/npool/nimage =      48
     Subspace diagonalization in iterative solution of the eigenvalue problem:
     a serial algorithm will be used

 
     Parallelization info
     --------------------
     sticks:   dense  smooth     PW     G-vecs:    dense   smooth      PW
     Min         115      92     25                10397     7446    1049
     Max         116      93     26                10405     7454    1056
     Sum        5521    4429   1201               499319   357613   50463
 
     Using Slab Decomposition
 


     bravais-lattice index     =            0
     lattice parameter (alat)  =      13.6251  a.u.
     unit-cell volume          =    4073.9414 (a.u.)^3
     number of atoms/cell      =           44
     number of atomic types    =            3
     number of electrons       =       136.00
     number of Kohn-Sham states=           82
     kinetic-energy cutoff     =      75.0000  Ry
     charge density cutoff     =     375.0000  Ry
     scf convergence threshold =      1.0E-08
     mixing beta               =       0.7000
     number of iterations used =            8  plain     mixing
     energy convergence thresh.=      1.0E-04
     force convergence thresh. =      1.0E-03
     press convergence thresh. =      5.0E-01
     Exchange-correlation= PBE
                           (   1   4   3   4   0   0   0)
     nstep                     =           50


     celldm(1)=  13.625077  celldm(2)=   0.000000  celldm(3)=   0.000000
     celldm(4)=   0.000000  celldm(5)=   0.000000  celldm(6)=   0.000000

     crystal axes: (cart. coord. in units of alat)
               a(1) = (   1.000000   0.000000   0.000000 )  
               a(2) = (   0.000000   1.000000   0.000000 )  
               a(3) = (   0.000000   0.000000   1.610638 )  

     reciprocal axes: (cart. coord. in units 2 pi/alat)
               b(1) = (  1.000000  0.000000  0.000000 )  
               b(2) = (  0.000000  1.000000  0.000000 )  
               b(3) = (  0.000000  0.000000  0.620872 )  


     PseudoPot. # 1 for Al read from file:
     /home/garima.iitr/.cache/.es/compmat/kalh4/Al.pbe-n-kjpaw_psl.1.0.0.UPF
     MD5 check sum: 502b6b27b9c6270cab5dd1084b96fa6d
     Pseudo is Projector augmented-wave + core cor, Zval =  3.0
     Generated using &quot;atomic&quot; code by A. Dal Corso  v.6.3
     Shape of augmentation charge: PSQ
     Using radial grid of 1135 points,  6 beta functions with: 
                l(1) =   0
                l(2) =   0
                l(3) =   1
                l(4) =   1
                l(5) =   2
                l(6) =   2
     Q(r) pseudized with 0 coefficients 


     PseudoPot. # 2 for H  read from file:
     /home/garima.iitr/.cache/.es/compmat/kalh4/H.pbe-rrkjus_psl.1.0.0.UPF
     MD5 check sum: 3f4114867bd07edc7f1424d066fc1888
     Pseudo is Ultrasoft, Zval =  1.0
     Generated using &quot;atomic&quot; code by A. Dal Corso  v.6.3MaX
     Using radial grid of  929 points,  2 beta functions with: 
                l(1) =   0
                l(2) =   0
     Q(r) pseudized with 0 coefficients 


     PseudoPot. # 3 for K  read from file:
     /home/garima.iitr/.cache/.es/compmat/kalh4/K.pbe-spn-kjpaw_psl.1.0.0.UPF
     MD5 check sum: 34cc42130a09071ebe376fd42eb21491
     Pseudo is Projector augmented-wave + core cor, Zval =  9.0
     Generated using &quot;atomic&quot; code by A. Dal Corso  v.6.2.2
     Shape of augmentation charge: PSQ
     Using radial grid of 1165 points,  6 beta functions with: 
                l(1) =   0
                l(2) =   0
                l(3) =   1
                l(4) =   1
                l(5) =   2
                l(6) =   2
     Q(r) pseudized with 0 coefficients 


     atomic species   valence    mass     pseudopotential
        Al             3.00    26.98100     Al( 1.00)
        H              1.00     1.00750     H ( 1.00)
        K              9.00    39.09830     K ( 1.00)

     16 Sym. Ops., with inversion, found ( 8 have fractional translation)



   Cartesian axes

     site n.     atom                  positions (alat units)
         1           K   tau(   1) = (   0.0000000   0.0000000   0.8053190  )
         2           K   tau(   2) = (   0.5000000   0.5000000   0.0000000  )
         3           K   tau(   3) = (   0.2917231   0.7917231   0.4026595  )
         4           K   tau(   4) = (   0.2082769   0.2917231   0.4026595  )
         5           K   tau(   5) = (   0.7082769   0.2082769   0.4026595  )
         6           K   tau(   6) = (   0.2082769   0.2917231   1.2079785  )
         7           K   tau(   7) = (   0.7082769   0.2082769   1.2079785  )
         8           K   tau(   8) = (   0.7917231   0.7082769   0.4026595  )
         9           K   tau(   9) = (   0.7917231   0.7082769   1.2079785  )
        10           K   tau(  10) = (   0.2917231   0.7917231   1.2079785  )
        11           Al  tau(  11) = (   0.0000000   0.0000000   0.0000000  )
        12           Al  tau(  12) = (   0.5000000   0.5000000   0.8053190  )
        13           Al  tau(  13) = (   0.0000000   0.5000000   0.0000000  )
        14           Al  tau(  14) = (   0.5000000   0.0000000   0.8053190  )
        15           Al  tau(  15) = (   0.0000000   0.5000000   0.8053190  )
        16           Al  tau(  16) = (   0.5000000   0.0000000   0.0000000  )
        17           H   tau(  17) = (   0.5433039   0.8348611   0.1692953  )
        18           H   tau(  18) = (   0.9566961   0.3348611   0.6360237  )
        19           H   tau(  19) = (   0.6651389   0.9566961   0.6360237  )
        20           H   tau(  20) = (   0.9566961   0.3348611   0.9746143  )
        21           H   tau(  21) = (   0.6651389   0.9566961   0.9746143  )
        22           H   tau(  22) = (   0.4566961   0.1651389   0.1692953  )
        23           H   tau(  23) = (   0.8348611   0.4566961   0.1692953  )
        24           H   tau(  24) = (   0.4566961   0.1651389   1.4413426  )
        25           H   tau(  25) = (   0.8348611   0.4566961   1.4413426  )
        26           H   tau(  26) = (   0.1651389   0.5433039   0.1692953  )
        27           H   tau(  27) = (   0.5433039   0.8348611   1.4413426  )
        28           H   tau(  28) = (   0.1651389   0.5433039   1.4413426  )
        29           H   tau(  29) = (   0.0433039   0.6651389   0.6360237  )
        30           H   tau(  30) = (   0.3348611   0.0433039   0.6360237  )
        31           H   tau(  31) = (   0.0433039   0.6651389   0.9746143  )
        32           H   tau(  32) = (   0.3348611   0.0433039   0.9746143  )
        33           H   tau(  33) = (   0.0000000   0.0000000   0.2451112  )
        34           H   tau(  34) = (   0.5000000   0.5000000   0.5602078  )
        35           H   tau(  35) = (   0.5000000   0.5000000   1.0504302  )
        36           H   tau(  36) = (   0.0000000   0.0000000   1.3655267  )
        37           H   tau(  37) = (   0.7542896   0.0580344   0.0000000  )
        38           H   tau(  38) = (   0.7457104   0.5580344   0.8053190  )
        39           H   tau(  39) = (   0.4419656   0.7457104   0.8053190  )
        40           H   tau(  40) = (   0.2457104   0.9419656   0.0000000  )
        41           H   tau(  41) = (   0.0580344   0.2457104   0.0000000  )
        42           H   tau(  42) = (   0.9419656   0.7542896   0.0000000  )
        43           H   tau(  43) = (   0.2542896   0.4419656   0.8053190  )
        44           H   tau(  44) = (   0.5580344   0.2542896   0.8053190  )

     number of k points=    40  Marzari-Vanderbilt smearing, width (Ry)=  0.0050
                       cart. coord. in units 2pi/alat
        k(    1) = (   0.0000000   0.0000000   0.0000000), wk =   0.0092593
        k(    2) = (   0.0000000   0.0000000   0.1034787), wk =   0.0185185
        k(    3) = (   0.0000000   0.0000000   0.2069573), wk =   0.0185185
        k(    4) = (   0.0000000   0.0000000  -0.3104360), wk =   0.0092593
        k(    5) = (   0.0000000   0.1666667   0.0000000), wk =   0.0370370
        k(    6) = (   0.0000000   0.1666667   0.1034787), wk =   0.0740741
        k(    7) = (   0.0000000   0.1666667   0.2069573), wk =   0.0740741
        k(    8) = (   0.0000000   0.1666667  -0.3104360), wk =   0.0370370
        k(    9) = (   0.0000000   0.3333333   0.0000000), wk =   0.0370370
        k(   10) = (   0.0000000   0.3333333   0.1034787), wk =   0.0740741
        k(   11) = (   0.0000000   0.3333333   0.2069573), wk =   0.0740741
        k(   12) = (   0.0000000   0.3333333  -0.3104360), wk =   0.0370370
        k(   13) = (   0.0000000  -0.5000000   0.0000000), wk =   0.0185185
        k(   14) = (   0.0000000  -0.5000000   0.1034787), wk =   0.0370370
        k(   15) = (   0.0000000  -0.5000000   0.2069573), wk =   0.0370370
        k(   16) = (   0.0000000  -0.5000000  -0.3104360), wk =   0.0185185
        k(   17) = (   0.1666667   0.1666667   0.0000000), wk =   0.0370370
        k(   18) = (   0.1666667   0.1666667   0.1034787), wk =   0.0740741
        k(   19) = (   0.1666667   0.1666667   0.2069573), wk =   0.0740741
        k(   20) = (   0.1666667   0.1666667  -0.3104360), wk =   0.0370370
        k(   21) = (   0.1666667   0.3333333   0.0000000), wk =   0.0740741
        k(   22) = (   0.1666667   0.3333333   0.1034787), wk =   0.1481481
        k(   23) = (   0.1666667   0.3333333   0.2069573), wk =   0.1481481
        k(   24) = (   0.1666667   0.3333333  -0.3104360), wk =   0.0740741
        k(   25) = (   0.1666667  -0.5000000   0.0000000), wk =   0.0370370
        k(   26) = (   0.1666667  -0.5000000   0.1034787), wk =   0.0740741
        k(   27) = (   0.1666667  -0.5000000   0.2069573), wk =   0.0740741
        k(   28) = (   0.1666667  -0.5000000  -0.3104360), wk =   0.0370370
        k(   29) = (   0.3333333   0.3333333   0.0000000), wk =   0.0370370
        k(   30) = (   0.3333333   0.3333333   0.1034787), wk =   0.0740741
        k(   31) = (   0.3333333   0.3333333   0.2069573), wk =   0.0740741
        k(   32) = (   0.3333333   0.3333333  -0.3104360), wk =   0.0370370
        k(   33) = (   0.3333333  -0.5000000   0.0000000), wk =   0.0370370
        k(   34) = (   0.3333333  -0.5000000   0.1034787), wk =   0.0740741
        k(   35) = (   0.3333333  -0.5000000   0.2069573), wk =   0.0740741
        k(   36) = (   0.3333333  -0.5000000  -0.3104360), wk =   0.0370370
        k(   37) = (  -0.5000000  -0.5000000   0.0000000), wk =   0.0092593
        k(   38) = (  -0.5000000  -0.5000000   0.1034787), wk =   0.0185185
        k(   39) = (  -0.5000000  -0.5000000   0.2069573), wk =   0.0185185
        k(   40) = (  -0.5000000  -0.5000000  -0.3104360), wk =   0.0092593

     Dense  grid:   499319 G-vectors     FFT dimensions: (  90,  90, 144)

     Smooth grid:   357613 G-vectors     FFT dimensions: (  80,  80, 128)

     Estimated max dynamical RAM per process >      52.63 MB

     Estimated total dynamical RAM >       7.16 GB

     Check: negative core charge=   -0.000001

     Initial potential from superposition of free atoms

     starting charge     135.7977, renormalised to     136.0000
     Starting wfcs are  132 randomized atomic wfcs
     Checking if some PAW data can be deallocated... 

     total cpu time spent up to now is        4.6 secs

     Self-consistent Calculation

     iteration #  1     ecut=    75.00 Ry     beta= 0.70
     Davidson diagonalization with overlap
     ethr =  1.00E-02,  avg # of iterations =  6.1

     total cpu time spent up to now is       12.4 secs

     total energy              =   -1399.98489514 Ry
     estimated scf accuracy    <       2.39016202 Ry

     iteration #  2     ecut=    75.00 Ry     beta= 0.70
     Davidson diagonalization with overlap
     ethr =  1.76E-03,  avg # of iterations =  2.6

     total cpu time spent up to now is       17.9 secs

     total energy              =   -1400.32724659 Ry
     estimated scf accuracy    <       0.07403099 Ry

     iteration #  3     ecut=    75.00 Ry     beta= 0.70
     Davidson diagonalization with overlap
     c_bands:  2 eigenvalues not converged
     ethr =  5.44E-05,  avg # of iterations = 15.1

     total cpu time spent up to now is       34.4 secs

     total energy              =   -1400.35615304 Ry
     estimated scf accuracy    <       0.00980665 Ry

     iteration #  4     ecut=    75.00 Ry     beta= 0.70
     Davidson diagonalization with overlap
     ethr =  7.21E-06,  avg # of iterations =  8.8

     total cpu time spent up to now is       43.1 secs

     total energy              =   -1400.35919608 Ry
     estimated scf accuracy    <       0.00062274 Ry

     iteration #  5     ecut=    75.00 Ry     beta= 0.70
     Davidson diagonalization with overlap
     ethr =  4.58E-07,  avg # of iterations =  4.5

     total cpu time spent up to now is       49.3 secs

     total energy              =   -1400.35939842 Ry
     estimated scf accuracy    <       0.00003400 Ry

     iteration #  6     ecut=    75.00 Ry     beta= 0.70
     Davidson diagonalization with overlap
     ethr =  2.50E-08,  avg # of iterations =  4.1

     total cpu time spent up to now is       55.8 secs

     total energy              =   -1400.35941668 Ry
     estimated scf accuracy    <       0.00000644 Ry

     iteration #  7     ecut=    75.00 Ry     beta= 0.70
     Davidson diagonalization with overlap
     ethr =  4.73E-09,  avg # of iterations =  2.2

     total cpu time spent up to now is       61.1 secs

     total energy              =   -1400.35941827 Ry
     estimated scf accuracy    <       0.00000027 Ry

     iteration #  8     ecut=    75.00 Ry     beta= 0.70
     Davidson diagonalization with overlap
     ethr =  2.00E-10,  avg # of iterations =  4.2

     total cpu time spent up to now is       68.2 secs

     total energy              =   -1400.35941842 Ry
     estimated scf accuracy    <       0.00000004 Ry

     iteration #  9     ecut=    75.00 Ry     beta= 0.70
     Davidson diagonalization with overlap
     ethr =  2.78E-11,  avg # of iterations =  2.4

     total cpu time spent up to now is       73.7 secs

     End of self-consistent calculation

          k = 0.0000 0.0000 0.0000 ( 44777 PWs)   bands (ev):

   -27.0119 -27.0100 -26.9745 -26.9745 -26.9744 -26.9744 -26.9453 -26.9452
   -26.8677 -26.8657 -10.8414 -10.7871 -10.7794 -10.7735 -10.7224 -10.7224
   -10.7040 -10.7040 -10.5881 -10.5388 -10.4998 -10.4992 -10.4992 -10.4364
   -10.4364 -10.3985 -10.3924 -10.3700 -10.3700 -10.3676 -10.3663 -10.3663
   -10.3662 -10.3603 -10.3578 -10.3578 -10.3557 -10.3527 -10.2813 -10.2813
    -4.4472  -4.1858  -3.0488  -2.9712  -1.9464  -1.7902  -0.9813  -0.9813
    -0.9464  -0.8432  -0.8432  -0.1155   0.1131   0.1371   0.1843   0.1843
     0.2401   0.4134   0.4134   0.4248   1.4742   1.6748   1.6748   2.0599
     2.0727   2.2105   2.2105   2.2564   5.5811   5.7246   6.0653   6.1134
     6.7076   6.7076   6.8632   7.2020   7.2728   7.2728   7.3036   7.4841
     7.7382   7.8730

          k = 0.0000 0.0000 0.1035 ( 44641 PWs)   bands (ev):

   -27.0118 -27.0101 -26.9745 -26.9745 -26.9744 -26.9744 -26.9453 -26.9452
   -26.8675 -26.8659 -10.8380 -10.7910 -10.7790 -10.7739 -10.7212 -10.7212
   -10.7052 -10.7052 -10.5876 -10.5526 -10.4966 -10.4966 -10.4798 -10.4441
   -10.4441 -10.3980 -10.3928 -10.3696 -10.3696 -10.3675 -10.3674 -10.3673
   -10.3673 -10.3663 -10.3547 -10.3528 -10.3487 -10.3487 -10.2849 -10.2849
    -4.4313  -4.2051  -3.0437  -2.9765  -1.9377  -1.8037  -0.9722  -0.9722
    -0.8950  -0.8526  -0.8526  -0.1812   0.1216   0.1533   0.1957   0.1957
     0.2315   0.3922   0.3922   0.3969   1.5473   1.7156   1.7156   2.0610
     2.0721   2.1775   2.1775   2.2155   5.5502   5.7026   6.1098   6.2104
     6.7409   6.7409   6.8845   7.1129   7.2317   7.2318   7.2602   7.2897
     7.9078   7.9593

          k = 0.0000 0.0000 0.2070 ( 44668 PWs)   bands (ev):

   -27.0114 -27.0105 -26.9745 -26.9745 -26.9744 -26.9744 -26.9453 -26.9452
   -26.8672 -26.8662 -10.8286 -10.8015 -10.7779 -10.7750 -10.7177 -10.7177
   -10.7085 -10.7085 -10.5855 -10.5695 -10.4887 -10.4887 -10.4600 -10.4600
   -10.4462 -10.3969 -10.3939 -10.3857 -10.3691 -10.3691 -10.3681 -10.3681
   -10.3673 -10.3666 -10.3540 -10.3531 -10.3302 -10.3302 -10.2951 -10.2951
    -4.3867  -4.2565  -3.0298  -2.9910  -1.9133  -1.8371  -0.9473  -0.9473
    -0.8782  -0.8782  -0.7547  -0.3491   0.1448   0.1984   0.2083   0.2289
     0.2289   0.3343   0.3403   0.3403   1.7214   1.8217   1.8217   2.0638
     2.0702   2.0862   2.0862   2.0982   5.5243   5.6334   6.2633   6.4113
     6.8351   6.8351   6.9411   6.9465   6.9490   7.1193   7.1193   7.1575
     7.9712   7.9712

          k = 0.0000 0.0000-0.3104 ( 44676 PWs)   bands (ev):

   -27.0110 -27.0110 -26.9745 -26.9745 -26.9745 -26.9745 -26.9453 -26.9453
   -26.8667 -26.8667 -10.8153 -10.8153 -10.7765 -10.7765 -10.7131 -10.7131
   -10.7131 -10.7131 -10.5802 -10.5802 -10.4760 -10.4760 -10.4760 -10.4760
   -10.4131 -10.4131 -10.3954 -10.3954 -10.3686 -10.3686 -10.3686 -10.3686
   -10.3669 -10.3669 -10.3535 -10.3535 -10.3110 -10.3110 -10.3110 -10.3110
    -4.3232  -4.3232  -3.0105  -3.0105  -1.8773  -1.8773  -0.9129  -0.9129
    -0.9129  -0.9129  -0.5586  -0.5586   0.1765   0.1765   0.2629   0.2629
     0.2801   0.2801   0.2801   0.2801   1.9226   1.9226   1.9574   1.9574
     1.9574   1.9574   2.0672   2.0672   5.5568   5.5568   6.4797   6.4797
     6.7773   6.7773   6.9721   6.9722   6.9722   6.9722   7.0425   7.0426
     7.9952   7.9952

          k = 0.0000 0.1667 0.0000 ( 44709 PWs)   bands (ev):

   -27.0095 -27.0076 -26.9771 -26.9768 -26.9725 -26.9725 -26.9472 -26.9472
   -26.8675 -26.8658 -10.8296 -10.7860 -10.7599 -10.7575 -10.7283 -10.7149
   -10.6935 -10.6759 -10.5810 -10.5371 -10.5126 -10.5037 -10.4934 -10.4331
   -10.4305 -10.4225 -10.4050 -10.4003 -10.3901 -10.3789 -10.3741 -10.3688
   -10.3655 -10.3633 -10.3586 -10.3566 -10.3530 -10.3417 -10.2874 -10.2838
    -4.3843  -4.1409  -3.0902  -3.0519  -2.1177  -2.0184  -0.9540  -0.8892
    -0.8385  -0.5904  -0.5180  -0.1337   0.1132   0.1367   0.1567   0.1629
     0.1651   0.3300   0.3553   0.3885   1.5017   1.7130   1.7572   1.9632
     2.0202   2.1810   2.1980   2.2056   5.6469   5.8235   6.0976   6.2033
     6.7997   6.8170   6.8567   6.9139   7.1463   7.3613   7.4667   7.5541
     7.6213   7.6323

          k = 0.0000 0.1667 0.1035 ( 44698 PWs)   bands (ev):

   -27.0094 -27.0078 -26.9771 -26.9769 -26.9725 -26.9725 -26.9472 -26.9472
   -26.8674 -26.8660 -10.8267 -10.7884 -10.7601 -10.7588 -10.7272 -10.7155
   -10.6923 -10.6771 -10.5807 -10.5513 -10.5007 -10.4933 -10.4905 -10.4431
   -10.4375 -10.4169 -10.4055 -10.4000 -10.3913 -10.3797 -10.3748 -10.3695
   -10.3683 -10.3660 -10.3580 -10.3567 -10.3441 -10.3362 -10.2897 -10.2868
    -4.3694  -4.1587  -3.0876  -3.0544  -2.1121  -2.0267  -0.9463  -0.8463
    -0.8421  -0.5873  -0.5245  -0.1917   0.1104   0.1440   0.1556   0.1747
     0.1811   0.3150   0.3384   0.3730   1.5511   1.7475   1.7922   1.9615
     2.0241   2.1219   2.1524   2.2214   5.6285   5.8002   6.1459   6.2686
     6.8050   6.8427   6.8694   6.9043   7.1185   7.2867   7.3951   7.3969
     7.6437   7.7734

          k = 0.0000 0.1667 0.2070 ( 44684 PWs)   bands (ev):

   -27.0090 -27.0081 -26.9770 -26.9769 -26.9725 -26.9725 -26.9472 -26.9472
   -26.8671 -26.8663 -10.8186 -10.7959 -10.7608 -10.7607 -10.7243 -10.7174
   -10.6891 -10.6803 -10.5793 -10.5663 -10.4918 -10.4841 -10.4698 -10.4585
   -10.4450 -10.4122 -10.4065 -10.4010 -10.3932 -10.3897 -10.3757 -10.3755
   -10.3678 -10.3667 -10.3576 -10.3569 -10.3266 -10.3232 -10.2969 -10.2953
    -4.3275  -4.2062  -3.0805  -3.0614  -2.0962  -2.0476  -0.9252  -0.8674
    -0.7133  -0.5776  -0.5412  -0.3419   0.1102   0.1385   0.1777   0.2026
     0.2272   0.2764   0.2967   0.3337   1.6753   1.8376   1.8731   1.9491
     2.0003   2.0381   2.0781   2.1806   5.6170   5.7311   6.2946   6.4019
     6.7705   6.8351   6.9322   6.9551   7.0370   7.1312   7.1916   7.2905
     7.6809   7.8082

          k = 0.0000 0.1667-0.3104 ( 44680 PWs)   bands (ev):

   -27.0086 -27.0086 -26.9770 -26.9770 -26.9725 -26.9725 -26.9472 -26.9472
   -26.8667 -26.8667 -10.8072 -10.8072 -10.7613 -10.7613 -10.7206 -10.7206
   -10.6847 -10.6847 -10.5751 -10.5751 -10.4785 -10.4785 -10.4729 -10.4729
   -10.4224 -10.4224 -10.4078 -10.4078 -10.3946 -10.3946 -10.3759 -10.3759
   -10.3673 -10.3673 -10.3572 -10.3572 -10.3097 -10.3097 -10.3082 -10.3082
    -4.2683  -4.2683  -3.0709  -3.0709  -2.0731  -2.0731  -0.8963  -0.8963
    -0.5612  -0.5612  -0.5327  -0.5327   0.1207   0.1207   0.2258   0.2258
     0.2454   0.2454   0.2829   0.2829   1.8307   1.8307   1.9335   1.9335
     1.9612   1.9612   2.1048   2.1048   5.6547   5.6547   6.4583   6.4583
     6.7319   6.7319   6.9823   6.9823   7.0516   7.0516   7.1609   7.1609
     7.7471   7.7471

          k = 0.0000 0.3333 0.0000 ( 44698 PWs)   bands (ev):

   -27.0028 -27.0012 -26.9841 -26.9834 -26.9672 -26.9671 -26.9526 -26.9525
   -26.8671 -26.8661 -10.8059 -10.7800 -10.7440 -10.7424 -10.7047 -10.6877
   -10.6266 -10.6077 -10.5603 -10.5491 -10.5312 -10.5185 -10.4841 -10.4767
   -10.4702 -10.4610 -10.4443 -10.4240 -10.4169 -10.3998 -10.3980 -10.3721
   -10.3659 -10.3634 -10.3600 -10.3585 -10.3396 -10.3207 -10.3022 -10.2912
    -4.2131  -4.0352  -3.2763  -3.2432  -2.2767  -2.2155  -0.8941  -0.8269
    -0.7280  -0.2554  -0.1453  -0.0342   0.0690   0.0924   0.1287   0.1649
     0.2246   0.3085   0.3181   0.3390   1.4143   1.5714   1.8161   1.9248
     1.9438   2.0970   2.1160   2.1756   5.7535   5.9106   6.2402   6.4574
     6.7404   6.8078   6.9769   7.0603   7.0889   7.2894   7.5331   7.6283
     7.7740   7.8400

          k = 0.0000 0.3333 0.1035 ( 44684 PWs)   bands (ev):

   -27.0026 -27.0013 -26.9840 -26.9835 -26.9672 -26.9671 -26.9526 -26.9525
   -26.8670 -26.8662 -10.8047 -10.7824 -10.7433 -10.7420 -10.7039 -10.6891
   -10.6254 -10.6090 -10.5619 -10.5568 -10.5182 -10.5135 -10.4837 -10.4766
   -10.4687 -10.4619 -10.4454 -10.4275 -10.4142 -10.4077 -10.3990 -10.3801
   -10.3656 -10.3636 -10.3597 -10.3586 -10.3318 -10.3182 -10.3012 -10.2928
    -4.2015  -4.0473  -3.2751  -3.2461  -2.2730  -2.2201  -0.8896  -0.8314
    -0.6939  -0.2873  -0.1443  -0.0284   0.0566   0.0941   0.1345   0.1680
     0.2174   0.2641   0.3431   0.3527   1.4342   1.5690   1.8356   1.8600
     2.0243   2.0381   2.0865   2.2214   5.7655   5.9120   6.2816   6.4315
     6.6604   6.8388   6.9540   7.1050   7.1284   7.3108   7.4971   7.5292
     7.7089   7.7538

          k = 0.0000 0.3333 0.2070 ( 44694 PWs)   bands (ev):

   -27.0024 -27.0016 -26.9839 -26.9836 -26.9672 -26.9671 -26.9526 -26.9525
   -26.8668 -26.8664 -10.8012 -10.7885 -10.7418 -10.7412 -10.7014 -10.6927
   -10.6221 -10.6127 -10.5648 -10.5638 -10.5018 -10.5000 -10.4822 -10.4755
   -10.4674 -10.4649 -10.4471 -10.4333 -10.4184 -10.4107 -10.4015 -10.3981
   -10.3651 -10.3641 -10.3593 -10.3588 -10.3178 -10.3119 -10.3014 -10.2974
    -4.1696  -4.0804  -3.2709  -3.2538  -2.2627  -2.2323  -0.8774  -0.8438
    -0.6020  -0.3678  -0.1362  -0.0610   0.0662   0.0957   0.1490   0.1765
     0.1982   0.2228   0.3543   0.3696   1.4828   1.5590   1.8262   1.8858
     1.9330   2.0218   2.1389   2.2415   5.8037   5.9030   6.3475   6.3803
     6.5976   6.8452   6.9948   7.1485   7.2317   7.2441   7.3477   7.4279
     7.6622   7.7425

          k = 0.0000 0.3333-0.3104 ( 44678 PWs)   bands (ev):

   -27.0020 -27.0020 -26.9837 -26.9837 -26.9672 -26.9672 -26.9525 -26.9525
   -26.8666 -26.8666 -10.7954 -10.7954 -10.7409 -10.7409 -10.6973 -10.6973
   -10.6175 -10.6175 -10.5660 -10.5660 -10.4931 -10.4931 -10.4765 -10.4765
   -10.4700 -10.4700 -10.4405 -10.4405 -10.4169 -10.4169 -10.4046 -10.4046
   -10.3646 -10.3646 -10.3590 -10.3590 -10.3068 -10.3068 -10.3041 -10.3041
    -4.1253  -4.1253  -3.2632  -3.2632  -2.2480  -2.2480  -0.8606  -0.8606
    -0.4811  -0.4811  -0.1096  -0.1096   0.0881   0.0881   0.1714   0.1714
     0.1945   0.1945   0.3667   0.3667   1.5318   1.5318   1.8486   1.8486
     1.9583   1.9583   2.2107   2.2107   5.8611   5.8611   6.3490   6.3490
     6.7255   6.7255   7.1043   7.1043   7.2186   7.2186   7.3427   7.3427
     7.6806   7.6806

          k = 0.0000-0.5000 0.0000 ( 44666 PWs)   bands (ev):

   -26.9935 -26.9935 -26.9923 -26.9923 -26.9599 -26.9599 -26.9598 -26.9598
   -26.8666 -26.8666 -10.7759 -10.7759 -10.7638 -10.7638 -10.6200 -10.6200
   -10.5913 -10.5913 -10.5441 -10.5441 -10.5279 -10.5279 -10.5203 -10.5203
   -10.5186 -10.5186 -10.4509 -10.4509 -10.4116 -10.4116 -10.3857 -10.3857
   -10.3626 -10.3626 -10.3608 -10.3608 -10.3211 -10.3211 -10.3035 -10.3035
    -4.0256  -4.0256  -3.3967  -3.3967  -2.2847  -2.2847  -0.8412  -0.8412
    -0.4947  -0.4947  -0.0731  -0.0731   0.0655   0.0655   0.1352   0.1352
     0.2255   0.2255   0.8833   0.8833   1.0111   1.0111   1.9490   1.9490
     2.0132   2.0132   2.0941   2.0941   5.8336   5.8336   6.4757   6.4757
     6.8288   6.8288   7.0299   7.0299   7.3724   7.3724   7.4879   7.4880
     7.6353   7.6353

          k = 0.0000-0.5000 0.1035 ( 44642 PWs)   bands (ev):

   -26.9935 -26.9935 -26.9923 -26.9923 -26.9599 -26.9599 -26.9598 -26.9598
   -26.8666 -26.8666 -10.7792 -10.7792 -10.7605 -10.7605 -10.6210 -10.6210
   -10.5900 -10.5900 -10.5440 -10.5440 -10.5329 -10.5329 -10.5222 -10.5222
   -10.5080 -10.5080 -10.4502 -10.4502 -10.4127 -10.4127 -10.3950 -10.3950
   -10.3624 -10.3624 -10.3609 -10.3609 -10.3162 -10.3162 -10.3033 -10.3033
    -4.0236  -4.0236  -3.3999  -3.3999  -2.2845  -2.2845  -0.8412  -0.8412
    -0.4861  -0.4861  -0.0676  -0.0676   0.0506   0.0506   0.1363   0.1363
     0.2250   0.2250   0.8875   0.8875   1.0115   1.0115   1.9299   1.9299
     1.9646   1.9646   2.1603   2.1603   5.8575   5.8575   6.4638   6.4638
     6.7593   6.7593   7.0637   7.0637   7.3937   7.3937   7.5367   7.5367
     7.5633   7.5634

          k = 0.0000-0.5000 0.2070 ( 44652 PWs)   bands (ev):

   -26.9934 -26.9934 -26.9924 -26.9924 -26.9599 -26.9599 -26.9598 -26.9598
   -26.8666 -26.8666 -10.7835 -10.7835 -10.7563 -10.7563 -10.6226 -10.6226
   -10.5875 -10.5875 -10.5439 -10.5439 -10.5379 -10.5379 -10.5226 -10.5226
   -10.4927 -10.4927 -10.4487 -10.4487 -10.4160 -10.4160 -10.4122 -10.4122
   -10.3620 -10.3620 -10.3611 -10.3611 -10.3085 -10.3085 -10.3027 -10.3027
    -4.0196  -4.0196  -3.4064  -3.4064  -2.2842  -2.2842  -0.8412  -0.8412
    -0.4683  -0.4683  -0.0514  -0.0514   0.0165   0.0165   0.1369   0.1369
     0.2236   0.2236   0.8963   0.8963   1.0123   1.0123   1.8639   1.8639
     1.9587   1.9587   2.2291   2.2291   5.9224   5.9224   6.3572   6.3572
     6.7749   6.7749   7.0932   7.0932   7.3686   7.3686   7.4202   7.4202
     7.6970   7.6970

          k = 0.0000-0.5000-0.3104 ( 44744 PWs)   bands (ev):

   -26.9934 -26.9934 -26.9924 -26.9924 -26.9598 -26.9598 -26.9598 -26.9598
   -26.8666 -26.8666 -10.7853 -10.7853 -10.7546 -10.7546 -10.6234 -10.6234
   -10.5863 -10.5863 -10.5439 -10.5439 -10.5396 -10.5396 -10.5227 -10.5227
   -10.4838 -10.4838 -10.4479 -10.4479 -10.4248 -10.4248 -10.4152 -10.4152
   -10.3618 -10.3618 -10.3612 -10.3612 -10.3054 -10.3054 -10.3025 -10.3025
    -4.0176  -4.0176  -3.4096  -3.4096  -2.2841  -2.2841  -0.8413  -0.8413
    -0.4590  -0.4590  -0.0317  -0.0317  -0.0119  -0.0119   0.1368   0.1368
     0.2228   0.2228   0.9007   0.9007   1.0127   1.0127   1.8365   1.8365
     1.9589   1.9589   2.2549   2.2549   5.9748   5.9748   6.2687   6.2687
     6.8366   6.8366   7.0925   7.0925   7.3005   7.3005   7.3989   7.3989
     7.8044   7.8045

          k = 0.1667 0.1667 0.0000 ( 44693 PWs)   bands (ev):

   -27.0071 -27.0053 -26.9752 -26.9752 -26.9749 -26.9746 -26.9492 -26.9492
   -26.8674 -26.8659 -10.8150 -10.7656 -10.7607 -10.7543 -10.6977 -10.6961
   -10.6882 -10.6808 -10.5743 -10.5359 -10.5192 -10.5047 -10.4910 -10.4401
   -10.4322 -10.4221 -10.4147 -10.4028 -10.4017 -10.3935 -10.3880 -10.3785
   -10.3736 -10.3721 -10.3705 -10.3634 -10.3536 -10.3274 -10.2972 -10.2818
    -4.3216  -4.0939  -3.1093  -3.0973  -2.3038  -2.2468  -0.8342  -0.6794
    -0.6041  -0.4869  -0.4238  -0.1377   0.0554   0.0983   0.1203   0.1227
     0.1634   0.2189   0.3521   0.3975   1.5299   1.7141   1.8567   1.9075
     1.9520   2.1060   2.1224   2.2377   5.6882   5.8743   6.1311   6.2941
     6.7130   6.8925   6.9190   6.9958   7.0587   7.1747   7.3269   7.6141
     7.6331   7.7215

          k = 0.1667 0.1667 0.1035 ( 44697 PWs)   bands (ev):

   -27.0069 -27.0054 -26.9752 -26.9752 -26.9749 -26.9746 -26.9492 -26.9492
   -26.8673 -26.8660 -10.8122 -10.7698 -10.7602 -10.7543 -10.6967 -10.6954
   -10.6882 -10.6819 -10.5742 -10.5494 -10.5021 -10.4994 -10.4884 -10.4480
   -10.4392 -10.4190 -10.4157 -10.4036 -10.4013 -10.3948 -10.3885 -10.3772
   -10.3734 -10.3723 -10.3707 -10.3682 -10.3464 -10.3234 -10.2974 -10.2853
    -4.3074  -4.1105  -3.1084  -3.0979  -2.3007  -2.2517  -0.7911  -0.6756
    -0.6105  -0.4832  -0.4285  -0.1937   0.0599   0.0988   0.1103   0.1358
     0.1629   0.2381   0.3300   0.3891   1.5554   1.7671   1.8691   1.9079
     1.9586   2.0326   2.1426   2.2145   5.6839   5.8555   6.1855   6.3246
     6.6935   6.8964   6.9137   7.0179   7.0533   7.1627   7.3163   7.4706
     7.6993   7.7213

          k = 0.1667 0.1667 0.2070 ( 44680 PWs)   bands (ev):

   -27.0066 -27.0057 -26.9752 -26.9752 -26.9748 -26.9747 -26.9492 -26.9492
   -26.8670 -26.8663 -10.8044 -10.7803 -10.7587 -10.7551 -10.6941 -10.6935
   -10.6888 -10.6850 -10.5731 -10.5623 -10.4939 -10.4808 -10.4721 -10.4643
   -10.4506 -10.4210 -10.4153 -10.4075 -10.4003 -10.3973 -10.3888 -10.3820
   -10.3730 -10.3724 -10.3720 -10.3711 -10.3296 -10.3143 -10.2995 -10.2955
    -4.2681  -4.1546  -3.1059  -3.0999  -2.2918  -2.2639  -0.6728  -0.6644
    -0.6269  -0.4727  -0.4412  -0.3330   0.0720   0.0954   0.1037   0.1484
     0.1712   0.2779   0.2808   0.3644   1.6384   1.8811   1.8902   1.9028
     1.9129   2.0027   2.1082   2.1529   5.6919   5.8015   6.3254   6.3856
     6.6616   6.9062   6.9070   6.9717   7.0904   7.1745   7.2432   7.2839
     7.6697   7.7543

          k = 0.1667 0.1667-0.3104 ( 44662 PWs)   bands (ev):

   -27.0062 -27.0062 -26.9752 -26.9752 -26.9747 -26.9747 -26.9492 -26.9492
   -26.8666 -26.8666 -10.7930 -10.7930 -10.7568 -10.7568 -10.6918 -10.6918
   -10.6886 -10.6886 -10.5697 -10.5697 -10.4810 -10.4810 -10.4696 -10.4696
   -10.4387 -10.4387 -10.4121 -10.4121 -10.3991 -10.3991 -10.3872 -10.3872
   -10.3726 -10.3726 -10.3717 -10.3717 -10.3110 -10.3110 -10.3054 -10.3054
    -4.2126  -4.2126  -3.1028  -3.1028  -2.2786  -2.2786  -0.6470  -0.6470
    -0.5080  -0.5080  -0.4569  -0.4569   0.0841   0.0841   0.1223   0.1223
     0.2214   0.2214   0.3260   0.3260   1.7648   1.7648   1.9013   1.9013
     2.0137   2.0137   2.0748   2.0748   5.7352   5.7352   6.4174   6.4174
     6.7555   6.7555   6.9132   6.9132   7.1581   7.1581   7.2181   7.2182
     7.7241   7.7250

          k = 0.1667 0.3333 0.0000 ( 44704 PWs)   bands (ev):

   -27.0004 -26.9989 -26.9820 -26.9814 -26.9696 -26.9694 -26.9547 -26.9546
   -26.8670 -26.8662 -10.7870 -10.7578 -10.7348 -10.7301 -10.6835 -10.6765
   -10.6309 -10.6157 -10.5552 -10.5465 -10.5331 -10.5163 -10.4814 -10.4761
   -10.4699 -10.4624 -10.4518 -10.4340 -10.4229 -10.4067 -10.3931 -10.3887
   -10.3834 -10.3790 -10.3764 -10.3666 -10.3482 -10.3140 -10.3090 -10.2853
    -4.1499  -3.9804  -3.2688  -3.2243  -2.5111  -2.4772  -0.6794  -0.5565
    -0.5146  -0.2299  -0.2054  -0.0946   0.0149   0.0839   0.1064   0.1478
     0.2007   0.2757   0.3206   0.4115   1.4463   1.5619   1.7837   1.8459
     1.9887   1.9989   2.0597   2.2377   5.7364   5.8654   6.2523   6.5492
     6.6130   6.6956   6.9795   7.1275   7.1916   7.3554   7.3794   7.5182
     7.7589   7.7604

          k = 0.1667 0.3333 0.1035 ( 44673 PWs)   bands (ev):

   -27.0003 -26.9990 -26.9819 -26.9814 -26.9696 -26.9694 -26.9547 -26.9546
   -26.8669 -26.8662 -10.7858 -10.7607 -10.7356 -10.7277 -10.6840 -10.6765
   -10.6298 -10.6167 -10.5566 -10.5524 -10.5228 -10.5118 -10.4810 -10.4765
   -10.4683 -10.4626 -10.4541 -10.4383 -10.4236 -10.4094 -10.3959 -10.3880
   -10.3843 -10.3785 -10.3776 -10.3703 -10.3407 -10.3110 -10.3077 -10.2881
    -4.1388  -3.9920  -3.2666  -3.2278  -2.5092  -2.4800  -0.6491  -0.5544
    -0.5172  -0.2702  -0.1969  -0.0736  -0.0005   0.0735   0.1153   0.1512
     0.2048   0.2502   0.3284   0.4163   1.4578   1.5610   1.7642   1.8793
     1.9216   2.0328   2.0807   2.2307   5.7611   5.8836   6.2851   6.4773
     6.5725   6.7363   6.9585   7.1819   7.2008   7.3214   7.3402   7.5615
     7.6561   7.7490

          k = 0.1667 0.3333 0.2070 ( 44675 PWs)   bands (ev):

   -27.0000 -26.9993 -26.9818 -26.9815 -26.9696 -26.9695 -26.9547 -26.9546
   -26.8668 -26.8664 -10.7822 -10.7675 -10.7358 -10.7244 -10.6850 -10.6767
   -10.6269 -10.6193 -10.5590 -10.5578 -10.5076 -10.5003 -10.4800 -10.4771
   -10.4684 -10.4629 -10.4597 -10.4436 -10.4281 -10.4159 -10.3976 -10.3896
   -10.3857 -10.3821 -10.3774 -10.3733 -10.3252 -10.3062 -10.3050 -10.2963
    -4.1084  -4.0236  -3.2597  -3.2371  -2.5038  -2.4871  -0.5682  -0.5495
    -0.5229  -0.3557  -0.1699  -0.0749  -0.0089   0.0544   0.1324   0.1570
     0.1972   0.2175   0.3408   0.4217   1.4915   1.5550   1.7468   1.8309
     1.9417   2.0468   2.1161   2.2102   5.8309   5.9218   6.2850   6.3474
     6.6003   6.8045   6.9466   7.1546   7.1690   7.2897   7.3339   7.5006
     7.6146   7.7431

          k = 0.1667 0.3333-0.3104 ( 44658 PWs)   bands (ev):

   -26.9997 -26.9997 -26.9817 -26.9816 -26.9695 -26.9695 -26.9546 -26.9546
   -26.8666 -26.8666 -10.7780 -10.7733 -10.7356 -10.7231 -10.6855 -10.6768
   -10.6231 -10.6229 -10.5601 -10.5595 -10.4994 -10.4915 -10.4778 -10.4775
   -10.4759 -10.4666 -10.4560 -10.4452 -10.4333 -10.4193 -10.3960 -10.3935
   -10.3859 -10.3832 -10.3772 -10.3738 -10.3097 -10.3089 -10.3041 -10.3037
    -4.0664  -4.0662  -3.2494  -3.2485  -2.4968  -2.4950  -0.5464  -0.5269
    -0.4613  -0.4607  -0.1277  -0.1206   0.0028   0.0422   0.1575   0.1594
     0.1621   0.2174   0.3470   0.4229   1.5266   1.5379   1.7593   1.7700
     2.0048   2.0048   2.1679   2.1731   5.9109   5.9141   6.2552   6.2618
     6.7750   6.7789   6.9524   6.9918   7.2044   7.2189   7.3721   7.4764
     7.6730   7.7480

          k = 0.1667-0.5000 0.0000 ( 44690 PWs)   bands (ev):

   -26.9913 -26.9913 -26.9902 -26.9902 -26.9622 -26.9622 -26.9620 -26.9620
   -26.8665 -26.8665 -10.7574 -10.7574 -10.7425 -10.7425 -10.6131 -10.6131
   -10.5914 -10.5914 -10.5482 -10.5482 -10.5365 -10.5365 -10.5149 -10.5149
   -10.5128 -10.5128 -10.4523 -10.4523 -10.4229 -10.4229 -10.3863 -10.3863
   -10.3841 -10.3841 -10.3732 -10.3732 -10.3328 -10.3328 -10.2946 -10.2946
    -3.9610  -3.9610  -3.3758  -3.3758  -2.5451  -2.5451  -0.5074  -0.5074
    -0.4561  -0.4561  -0.1940  -0.1940   0.0369   0.0369   0.1981   0.1981
     0.2006   0.2006   0.8979   0.8979   1.0158   1.0158   1.8956   1.8956
     1.9086   1.9086   2.1721   2.1721   5.7747   5.7747   6.4062   6.4062
     6.9113   6.9113   6.9169   6.9169   7.3873   7.3873   7.4508   7.4509
     7.7063   7.7067

          k = 0.1667-0.5000 0.1035 ( 44682 PWs)   bands (ev):

   -26.9912 -26.9912 -26.9902 -26.9902 -26.9622 -26.9622 -26.9620 -26.9620
   -26.8665 -26.8665 -10.7603 -10.7603 -10.7396 -10.7396 -10.6139 -10.6139
   -10.5899 -10.5899 -10.5480 -10.5480 -10.5370 -10.5370 -10.5214 -10.5214
   -10.5032 -10.5032 -10.4514 -10.4514 -10.4274 -10.4274 -10.3899 -10.3899
   -10.3833 -10.3833 -10.3753 -10.3753 -10.3268 -10.3268 -10.2957 -10.2957
    -3.9591  -3.9591  -3.3787  -3.3787  -2.5452  -2.5452  -0.5074  -0.5074
    -0.4524  -0.4524  -0.1805  -0.1805   0.0284   0.0284   0.1641   0.1641
     0.2256   0.2256   0.9014   0.9014   1.0163   1.0163   1.8254   1.8254
     1.9659   1.9659   2.1824   2.1824   5.8097   5.8097   6.4073   6.4073
     6.7422   6.7422   7.0647   7.0647   7.3187   7.3187   7.4962   7.4962
     7.6162   7.6162

          k = 0.1667-0.5000 0.2070 ( 44690 PWs)   bands (ev):

   -26.9912 -26.9912 -26.9902 -26.9902 -26.9621 -26.9621 -26.9620 -26.9620
   -26.8665 -26.8665 -10.7644 -10.7644 -10.7354 -10.7354 -10.6154 -10.6154
   -10.5871 -10.5871 -10.5475 -10.5475 -10.5380 -10.5380 -10.5256 -10.5256
   -10.4905 -10.4905 -10.4496 -10.4496 -10.4390 -10.4390 -10.3958 -10.3958
   -10.3829 -10.3829 -10.3772 -10.3772 -10.3156 -10.3156 -10.2991 -10.2991
    -3.9553  -3.9553  -3.3845  -3.3845  -2.5453  -2.5453  -0.5058  -0.5058
    -0.4478  -0.4478  -0.1422  -0.1422  -0.0004  -0.0004   0.1335   0.1335
     0.2404   0.2404   0.9086   0.9086   1.0173   1.0173   1.7643   1.7643
     1.9997   1.9997   2.2042   2.2042   5.9103   5.9103   6.2986   6.2986
     6.7437   6.7437   7.0973   7.0973   7.2281   7.2281   7.4205   7.4206
     7.7161   7.7162

          k = 0.1667-0.5000-0.3104 ( 44692 PWs)   bands (ev):

   -26.9912 -26.9912 -26.9902 -26.9902 -26.9621 -26.9621 -26.9620 -26.9620
   -26.8665 -26.8665 -10.7661 -10.7661 -10.7337 -10.7337 -10.6160 -10.6160
   -10.5858 -10.5858 -10.5474 -10.5474 -10.5385 -10.5385 -10.5271 -10.5271
   -10.4826 -10.4826 -10.4489 -10.4489 -10.4469 -10.4469 -10.3984 -10.3984
   -10.3827 -10.3827 -10.3777 -10.3777 -10.3066 -10.3066 -10.3049 -10.3049
    -3.9534  -3.9534  -3.3874  -3.3874  -2.5453  -2.5453  -0.5043  -0.5043
    -0.4467  -0.4467  -0.1085  -0.1085  -0.0302  -0.0302   0.1224   0.1224
     0.2451   0.2451   0.9121   0.9121   1.0178   1.0178   1.7410   1.7410
     2.0091   2.0091   2.2153   2.2153   6.0209   6.0209   6.1583   6.1583
     6.8458   6.8458   7.0295   7.0295   7.1688   7.1688   7.4080   7.4080
     7.8203   7.8205

          k = 0.3333 0.3333 0.0000 ( 44646 PWs)   bands (ev):

   -26.9940 -26.9927 -26.9767 -26.9766 -26.9758 -26.9748 -26.9605 -26.9602
   -26.8667 -26.8662 -10.7452 -10.7131 -10.7047 -10.7040 -10.6390 -10.6326
   -10.6307 -10.6199 -10.5490 -10.5423 -10.5419 -10.5144 -10.4921 -10.4916
   -10.4809 -10.4697 -10.4690 -10.4454 -10.4414 -10.4320 -10.4250 -10.4206
   -10.4158 -10.4106 -10.3759 -10.3649 -10.3546 -10.3321 -10.2951 -10.2826
    -3.9735  -3.8357  -3.2947  -3.2107  -2.8813  -2.8522  -0.5434  -0.3415
    -0.2758  -0.1756  -0.1220  -0.0098  -0.0045   0.0346   0.1345   0.2112
     0.2407   0.3132   0.3850   0.4515   1.4502   1.5140   1.5289   1.7181
     1.7878   1.9210   2.1792   2.2920   5.6665   5.7205   6.1944   6.4171
     6.6870   6.7999   6.9100   7.2136   7.3143   7.3921   7.5668   7.6016
     7.6472   7.6938

          k = 0.3333 0.3333 0.1035 ( 44690 PWs)   bands (ev):

   -26.9939 -26.9928 -26.9767 -26.9766 -26.9757 -26.9749 -26.9605 -26.9602
   -26.8667 -26.8663 -10.7443 -10.7190 -10.7031 -10.7013 -10.6377 -10.6318
   -10.6305 -10.6211 -10.5493 -10.5432 -10.5383 -10.5119 -10.4954 -10.4918
   -10.4809 -10.4682 -10.4658 -10.4527 -10.4419 -10.4352 -10.4238 -10.4207
   -10.4156 -10.4117 -10.3768 -10.3686 -10.3470 -10.3263 -10.2960 -10.2860
    -3.9644  -3.8451  -3.2892  -3.2165  -2.8799  -2.8550  -0.5302  -0.3208
    -0.3175  -0.1511  -0.1124  -0.0148  -0.0034   0.0446   0.1152   0.1838
     0.2544   0.3107   0.3924   0.4483   1.4557   1.5097   1.5234   1.6866
     1.8144   1.9309   2.1847   2.2824   5.7090   5.7660   6.2109   6.4623
     6.6092   6.6589   6.9484   7.1846   7.3160   7.4069   7.4391   7.6031
     7.6348   7.7232

          k = 0.3333 0.3333 0.2070 ( 44687 PWs)   bands (ev):

   -26.9937 -26.9931 -26.9766 -26.9766 -26.9756 -26.9751 -26.9604 -26.9603
   -26.8666 -26.8664 -10.7413 -10.7280 -10.7009 -10.6988 -10.6344 -10.6302
   -10.6301 -10.6243 -10.5491 -10.5454 -10.5287 -10.5051 -10.5041 -10.4927
   -10.4804 -10.4673 -10.4640 -10.4585 -10.4439 -10.4434 -10.4224 -10.4210
   -10.4152 -10.4134 -10.3781 -10.3742 -10.3299 -10.3155 -10.2994 -10.2961
    -3.9395  -3.8706  -3.2742  -3.2322  -2.8759  -2.8617  -0.4960  -0.3854
    -0.2620  -0.1418  -0.0875  -0.0307   0.0076   0.0656   0.0757   0.1308
     0.2747   0.3032   0.4082   0.4390   1.4702   1.5087   1.5169   1.6200
     1.8692   1.9370   2.2014   2.2578   5.8307   5.8957   6.1742   6.3434
     6.5815   6.6732   6.8661   7.0617   7.2393   7.3946   7.4356   7.5945
     7.6673   7.7403

          k = 0.3333 0.3333-0.3104 ( 44716 PWs)   bands (ev):

   -26.9934 -26.9934 -26.9766 -26.9766 -26.9753 -26.9753 -26.9604 -26.9604
   -26.8665 -26.8665 -10.7359 -10.7359 -10.6990 -10.6990 -10.6309 -10.6309
   -10.6281 -10.6281 -10.5477 -10.5477 -10.5161 -10.5161 -10.4970 -10.4970
   -10.4771 -10.4771 -10.4578 -10.4578 -10.4474 -10.4474 -10.4216 -10.4216
   -10.4145 -10.4145 -10.3776 -10.3776 -10.3115 -10.3115 -10.3059 -10.3059
    -3.9052  -3.9052  -3.2534  -3.2534  -2.8695  -2.8695  -0.4471  -0.4471
    -0.1870  -0.1870  -0.0572  -0.0572   0.0353   0.0353   0.0909   0.0909
     0.2912   0.2912   0.4250   0.4250   1.4892   1.4892   1.5557   1.5557
     1.9164   1.9164   2.2276   2.2276   6.0054   6.0054   6.0993   6.0993
     6.7305   6.7305   6.8468   6.8468   7.2703   7.2703   7.5140   7.5140
     7.7430   7.7431

          k = 0.3333-0.5000 0.0000 ( 44690 PWs)   bands (ev):

   -26.9852 -26.9852 -26.9843 -26.9843 -26.9684 -26.9684 -26.9679 -26.9679
   -26.8664 -26.8664 -10.7131 -10.7131 -10.6863 -10.6863 -10.5929 -10.5929
   -10.5922 -10.5922 -10.5596 -10.5596 -10.5534 -10.5534 -10.5098 -10.5098
   -10.5042 -10.5042 -10.4545 -10.4545 -10.4453 -10.4453 -10.4327 -10.4327
   -10.4271 -10.4271 -10.3676 -10.3676 -10.3482 -10.3482 -10.2859 -10.2859
    -3.7729  -3.7729  -3.3352  -3.3352  -2.9931  -2.9931  -0.3816  -0.3816
    -0.3497  -0.3497  -0.0568  -0.0568   0.1453   0.1453   0.1584   0.1584
     0.2790   0.2790   0.9088   0.9088   1.0163   1.0163   1.5931   1.5931
     1.8411   1.8411   2.2761   2.2761   5.6281   5.6281   6.2057   6.2057
     6.9489   6.9489   7.1381   7.1381   7.2271   7.2271   7.5944   7.5944
     7.6559   7.6560

          k = 0.3333-0.5000 0.1035 ( 44710 PWs)   bands (ev):

   -26.9852 -26.9852 -26.9843 -26.9843 -26.9684 -26.9684 -26.9679 -26.9679
   -26.8664 -26.8664 -10.7147 -10.7147 -10.6843 -10.6843 -10.5939 -10.5939
   -10.5900 -10.5900 -10.5603 -10.5603 -10.5531 -10.5531 -10.5137 -10.5137
   -10.4993 -10.4993 -10.4540 -10.4540 -10.4501 -10.4501 -10.4323 -10.4323
   -10.4279 -10.4279 -10.3697 -10.3697 -10.3407 -10.3407 -10.2887 -10.2887
    -3.7713  -3.7713  -3.3367  -3.3367  -2.9941  -2.9941  -0.4225  -0.4225
    -0.2933  -0.2933  -0.0509  -0.0509   0.1266   0.1266   0.1535   0.1535
     0.2819   0.2819   0.9114   0.9114   1.0161   1.0161   1.5771   1.5771
     1.8533   1.8533   2.2747   2.2747   5.6758   5.6758   6.2446   6.2447
     6.7809   6.7809   7.1005   7.1005   7.2668   7.2668   7.5775   7.5776
     7.7132   7.7139

          k = 0.3333-0.5000 0.2070 ( 44702 PWs)   bands (ev):

   -26.9851 -26.9851 -26.9843 -26.9843 -26.9683 -26.9683 -26.9679 -26.9679
   -26.8664 -26.8664 -10.7175 -10.7175 -10.6808 -10.6808 -10.5948 -10.5948
   -10.5866 -10.5866 -10.5621 -10.5621 -10.5525 -10.5525 -10.5180 -10.5180
   -10.4907 -10.4907 -10.4638 -10.4638 -10.4508 -10.4508 -10.4317 -10.4317
   -10.4288 -10.4288 -10.3725 -10.3725 -10.3254 -10.3254 -10.2969 -10.2969
    -3.7680  -3.7680  -3.3397  -3.3397  -2.9961  -2.9961  -0.4570  -0.4570
    -0.2175  -0.2175  -0.0405  -0.0405   0.0718   0.0718   0.1541   0.1541
     0.2857   0.2857   0.9165   0.9165   1.0158   1.0158   1.5484   1.5484
     1.8742   1.8742   2.2719   2.2719   5.8058   5.8058   6.2818   6.2818
     6.6030   6.6030   6.9371   6.9371   7.3345   7.3345   7.5201   7.5202
     7.7868   7.7871

          k = 0.3333-0.5000-0.3104 ( 44716 PWs)   bands (ev):

   -26.9851 -26.9851 -26.9843 -26.9843 -26.9683 -26.9683 -26.9680 -26.9680
   -26.8664 -26.8664 -10.7187 -10.7187 -10.6793 -10.6793 -10.5952 -10.5952
   -10.5846 -10.5846 -10.5633 -10.5633 -10.5521 -10.5521 -10.5198 -10.5198
   -10.4824 -10.4824 -10.4743 -10.4743 -10.4498 -10.4498 -10.4313 -10.4313
   -10.4292 -10.4292 -10.3736 -10.3736 -10.3099 -10.3099 -10.3094 -10.3094
    -3.7663  -3.7663  -3.3413  -3.3413  -2.9970  -2.9970  -0.4692  -0.4692
    -0.1738  -0.1738  -0.0384  -0.0384   0.0369   0.0369   0.1548   0.1548
     0.2871   0.2871   0.9190   0.9190   1.0157   1.0157   1.5353   1.5353
     1.8833   1.8833   2.2705   2.2705   5.9229   5.9229   6.1916   6.1916
     6.6620   6.6620   6.7860   6.7860   7.3925   7.3925   7.4440   7.4440
     7.8481   7.8483

          k =-0.5000-0.5000 0.0000 ( 44700 PWs)   bands (ev):

   -26.9774 -26.9774 -26.9773 -26.9773 -26.9762 -26.9762 -26.9750 -26.9750
   -26.8664 -26.8664 -10.6847 -10.6847 -10.6332 -10.6332 -10.6004 -10.6004
   -10.5798 -10.5798 -10.5698 -10.5698 -10.5623 -10.5623 -10.5234 -10.5234
   -10.4979 -10.4979 -10.4687 -10.4687 -10.4581 -10.4581 -10.4491 -10.4491
   -10.4476 -10.4476 -10.3645 -10.3645 -10.3553 -10.3553 -10.2829 -10.2829
    -3.5485  -3.5485  -3.3764  -3.3764  -3.2543  -3.2543  -0.4585  -0.4585
    -0.2136  -0.2136  -0.1905  -0.1905   0.1414   0.1414   0.2905   0.2905
     0.6899   0.6899   0.8724   0.8724   0.9554   0.9554   1.2957   1.2957
     1.8227   1.8227   2.3193   2.3193   5.5527   5.5527   6.0946   6.0946
     7.0972   7.0973   7.2510   7.2510   7.3189   7.3189   7.3437   7.3439
     7.7048   7.7049

          k =-0.5000-0.5000 0.1035 ( 44740 PWs)   bands (ev):

   -26.9774 -26.9774 -26.9773 -26.9773 -26.9762 -26.9762 -26.9750 -26.9750
   -26.8664 -26.8664 -10.6849 -10.6849 -10.6329 -10.6329 -10.5983 -10.5983
   -10.5802 -10.5802 -10.5698 -10.5698 -10.5636 -10.5636 -10.5240 -10.5240
   -10.4960 -10.4960 -10.4686 -10.4686 -10.4589 -10.4589 -10.4541 -10.4541
   -10.4473 -10.4473 -10.3650 -10.3650 -10.3475 -10.3475 -10.2863 -10.2863
    -3.5483  -3.5483  -3.3687  -3.3687  -3.2630  -3.2630  -0.4741  -0.4741
    -0.1911  -0.1911  -0.1713  -0.1713   0.1158   0.1158   0.2906   0.2906
     0.6900   0.6900   0.8791   0.8791   0.9505   0.9505   1.2915   1.2915
     1.8214   1.8214   2.3184   2.3184   5.6009   5.6009   6.1535   6.1535
     6.9055   6.9055   7.0147   7.0147   7.3624   7.3626   7.6416   7.6416
     7.6846   7.6846

          k =-0.5000-0.5000 0.2070 ( 44728 PWs)   bands (ev):

   -26.9774 -26.9774 -26.9773 -26.9773 -26.9762 -26.9762 -26.9750 -26.9750
   -26.8664 -26.8664 -10.6853 -10.6853 -10.6322 -10.6322 -10.5929 -10.5929
   -10.5819 -10.5819 -10.5698 -10.5698 -10.5665 -10.5665 -10.5254 -10.5254
   -10.4904 -10.4904 -10.4683 -10.4683 -10.4677 -10.4677 -10.4601 -10.4601
   -10.4443 -10.4443 -10.3662 -10.3662 -10.3303 -10.3303 -10.2964 -10.2964
    -3.5478  -3.5478  -3.3473  -3.3473  -3.2863  -3.2863  -0.5006  -0.5006
    -0.1374  -0.1374  -0.1289  -0.1289   0.0476   0.0476   0.2908   0.2908
     0.6901   0.6901   0.8961   0.8961   0.9369   0.9369   1.2829   1.2829
     1.8190   1.8190   2.3167   2.3167   5.7243   5.7243   6.3186   6.3186
     6.5731   6.5731   6.8101   6.8101   7.4182   7.4182   7.6118   7.6119
     7.8968   7.8969

          k =-0.5000-0.5000-0.3104 ( 44640 PWs)   bands (ev):

   -26.9773 -26.9773 -26.9773 -26.9773 -26.9762 -26.9762 -26.9750 -26.9750
   -26.8664 -26.8664 -10.6854 -10.6854 -10.6319 -10.6319 -10.5864 -10.5864
   -10.5864 -10.5864 -10.5689 -10.5689 -10.5689 -10.5689 -10.5260 -10.5260
   -10.4808 -10.4808 -10.4808 -10.4808 -10.4682 -10.4682 -10.4606 -10.4606
   -10.4429 -10.4429 -10.3667 -10.3667 -10.3118 -10.3118 -10.3118 -10.3118
    -3.5476  -3.5476  -3.3172  -3.3172  -3.3172  -3.3172  -0.5122  -0.5122
    -0.1221  -0.1221  -0.0421  -0.0421  -0.0421  -0.0421   0.2909   0.2909
     0.6902   0.6902   0.9173   0.9173   0.9173   0.9173   1.2785   1.2785
     1.8178   1.8178   2.3158   2.3158   5.8145   5.8145   6.4116   6.4116
     6.5557   6.5557   6.5557   6.5557   7.5079   7.5080   7.5080   7.5081
     7.9856   7.9870

     the Fermi energy is     4.1295 ev

!    total energy              =   -1400.35941843 Ry
     estimated scf accuracy    <          4.5E-10 Ry
     smearing contrib. (-TS)   =       0.00000000 Ry
     internal energy E=F+TS    =   -1400.35941843 Ry

     The total energy is F=E-TS. E is the sum of the following terms:
     one-electron contribution =    -229.25889286 Ry
     hartree contribution      =     155.70636624 Ry
     xc contribution           =    -148.35957606 Ry
     ewald contribution        =    -416.28517824 Ry
     one-center paw contrib.   =    -762.16213751 Ry

     convergence has been achieved in   9 iterations

     Forces acting on atoms (cartesian axes, Ry/au):

     atom    1 type  3   force =     0.00000000    0.00000000    0.00000000
     atom    2 type  3   force =     0.00000000    0.00000000   -0.00000000
     atom    3 type  3   force =     0.00002600    0.00002600   -0.00000000
     atom    4 type  3   force =    -0.00002600    0.00002600    0.00000000
     atom    5 type  3   force =    -0.00002600   -0.00002600   -0.00000000
     atom    6 type  3   force =    -0.00002600    0.00002600    0.00000000
     atom    7 type  3   force =    -0.00002600   -0.00002600   -0.00000000
     atom    8 type  3   force =     0.00002600   -0.00002600    0.00000000
     atom    9 type  3   force =     0.00002600   -0.00002600    0.00000000
     atom   10 type  3   force =     0.00002600    0.00002600   -0.00000000
     atom   11 type  1   force =     0.00000000    0.00000000    0.00000000
     atom   12 type  1   force =     0.00000000    0.00000000   -0.00000000
     atom   13 type  1   force =     0.00000000    0.00000000   -0.00000000
     atom   14 type  1   force =     0.00000000    0.00000000    0.00000000
     atom   15 type  1   force =     0.00000000    0.00000000    0.00000000
     atom   16 type  1   force =     0.00000000    0.00000000   -0.00000000
     atom   17 type  2   force =    -0.00008824   -0.00004344   -0.00006685
     atom   18 type  2   force =     0.00008824   -0.00004344    0.00006685
     atom   19 type  2   force =     0.00004344    0.00008824    0.00006685
     atom   20 type  2   force =     0.00008824   -0.00004344   -0.00006685
     atom   21 type  2   force =     0.00004344    0.00008824   -0.00006685
     atom   22 type  2   force =     0.00008824    0.00004344   -0.00006685
     atom   23 type  2   force =    -0.00004344    0.00008824   -0.00006685
     atom   24 type  2   force =     0.00008824    0.00004344    0.00006685
     atom   25 type  2   force =    -0.00004344    0.00008824    0.00006685
     atom   26 type  2   force =     0.00004344   -0.00008824   -0.00006685
     atom   27 type  2   force =    -0.00008824   -0.00004344    0.00006685
     atom   28 type  2   force =     0.00004344   -0.00008824    0.00006685
     atom   29 type  2   force =    -0.00008824    0.00004344    0.00006685
     atom   30 type  2   force =    -0.00004344   -0.00008824    0.00006685
     atom   31 type  2   force =    -0.00008824    0.00004344   -0.00006685
     atom   32 type  2   force =    -0.00004344   -0.00008824   -0.00006685
     atom   33 type  2   force =     0.00000000    0.00000000   -0.00068585
     atom   34 type  2   force =     0.00000000    0.00000000    0.00068585
     atom   35 type  2   force =     0.00000000    0.00000000   -0.00068585
     atom   36 type  2   force =     0.00000000    0.00000000    0.00068585
     atom   37 type  2   force =     0.00040696   -0.00023973    0.00000000
     atom   38 type  2   force =    -0.00040696   -0.00023973    0.00000000
     atom   39 type  2   force =     0.00023973   -0.00040696   -0.00000000
     atom   40 type  2   force =    -0.00040696    0.00023973    0.00000000
     atom   41 type  2   force =    -0.00023973   -0.00040696    0.00000000
     atom   42 type  2   force =     0.00023973    0.00040696    0.00000000
     atom   43 type  2   force =     0.00040696    0.00023973    0.00000000
     atom   44 type  2   force =    -0.00023973    0.00040696   -0.00000000

     Total force =     0.001976     Total SCF correction =     0.000017


     Computing stress (Cartesian axis) and pressure

          total   stress  (Ry/bohr**3)                   (kbar)     P=       -0.27
   0.00002050   0.00000000   0.00000000            3.02        0.00        0.00
   0.00000000   0.00002050   0.00000000            0.00        3.02        0.00
   0.00000000   0.00000000  -0.00004661            0.00        0.00       -6.86


     BFGS Geometry Optimization
     Energy error            =      0.0E+00 Ry
     Gradient error          =      6.9E-04 Ry/Bohr
     Cell gradient error     =      6.9E+00 kbar

     number of scf cycles    =   1
     number of bfgs steps    =   0

     enthalpy           new  =   -1400.3594184303 Ry

     new trust radius        =       0.0148741773 bohr
     new conv_thr            =       0.0000000100 Ry

     new unit-cell volume =   4073.36740 a.u.^3 (   603.61077 Ang^3 )
     density =      1.59855 g/cm^3

CELL_PARAMETERS (alat= 13.62507654)
   1.000512613   0.000000000   0.000000000
   0.000000000   1.000512613   0.000000000
   0.000000000   0.000000000   1.608761245

ATOMIC_POSITIONS (crystal)
K             0.0000000000        0.0000000000        0.5000000000
K             0.5000000000        0.5000000000       -0.0000000000
K             0.2917249797        0.7917249797        0.2500000000
K             0.2082750203        0.2917249797        0.2500000000
K             0.7082750203        0.2082750203        0.2500000000
K             0.2082750203        0.2917249797        0.7500000000
K             0.7082750203        0.2082750203        0.7500000000
K             0.7917249797        0.7082750203        0.2500000000
K             0.7917249797        0.7082750203        0.7500000000
K             0.2917249797        0.7917249797        0.7500000000
Al            0.0000000000        0.0000000000        0.0000000000
Al            0.5000000000        0.5000000000        0.5000000000
Al            0.0000000000        0.5000000000       -0.0000000000
Al            0.5000000000        0.0000000000        0.5000000000
Al            0.0000000000        0.5000000000        0.5000000000
Al            0.5000000000        0.0000000000       -0.0000000000
H             0.5432974591        0.8348578771        0.1051076609
H             0.9567025409        0.3348578771        0.3948923391
H             0.6651421229        0.9567025409        0.3948923391
H             0.9567025409        0.3348578771        0.6051076609
H             0.6651421229        0.9567025409        0.6051076609
H             0.4567025409        0.1651421229        0.1051076609
H             0.8348578771        0.4567025409        0.1051076609
H             0.4567025409        0.1651421229        0.8948923391
H             0.8348578771        0.4567025409        0.8948923391
H             0.1651421229        0.5432974591        0.1051076609
H             0.5432974591        0.8348578771        0.8948923391
H             0.1651421229        0.5432974591        0.8948923391
H             0.0432974591        0.6651421229        0.3948923391
H             0.3348578771        0.0432974591        0.3948923391
H             0.0432974591        0.6651421229        0.6051076609
H             0.3348578771        0.0432974591        0.6051076609
H             0.0000000000        0.0000000000        0.1521514233
H             0.5000000000        0.5000000000        0.3478485767
H             0.5000000000        0.5000000000        0.6521514233
H             0.0000000000        0.0000000000        0.8478485767
H             0.7543194979        0.0580167567        0.0000000000
H             0.7456805021        0.5580167567        0.5000000000
H             0.4419832433        0.7456805021        0.5000000000
H             0.2456805021        0.9419832433        0.0000000000
H             0.0580167567        0.2456805021        0.0000000000
H             0.9419832433        0.7543194979        0.0000000000
H             0.2543194979        0.4419832433        0.5000000000
H             0.5580167567        0.2543194979        0.5000000000



     Writing config-only to output data dir ./k5al3h14.save/
     NEW-OLD atomic charge density approx. for the potential

     Check: negative core charge=   -0.000001
     extrapolated charge  135.98086, renormalised to  136.00000

     total cpu time spent up to now is       93.0 secs

     Self-consistent Calculation

     iteration #  1     ecut=    75.00 Ry     beta= 0.70
     Davidson diagonalization with overlap
     ethr =  1.00E-06,  avg # of iterations =  2.0

     Threshold (ethr) on eigenvalues was too large:
     Diagonalizing with lowered threshold

     Davidson diagonalization with overlap
     ethr =  2.45E-09,  avg # of iterations =  4.8

     total cpu time spent up to now is      105.4 secs

     total energy              =   -1400.35971117 Ry
     estimated scf accuracy    <       0.00000406 Ry

     iteration #  2     ecut=    75.00 Ry     beta= 0.70
     Davidson diagonalization with overlap
     ethr =  2.99E-09,  avg # of iterations =  2.0

     total cpu time spent up to now is      111.1 secs

     total energy              =   -1400.35971405 Ry
     estimated scf accuracy    <       0.00000240 Ry

     iteration #  3     ecut=    75.00 Ry     beta= 0.70
     Davidson diagonalization with overlap
     ethr =  1.76E-09,  avg # of iterations =  2.0

     total cpu time spent up to now is      116.4 secs

     total energy              =   -1400.35971416 Ry
     estimated scf accuracy    <       0.00000023 Ry

     iteration #  4     ecut=    75.00 Ry     beta= 0.70
     Davidson diagonalization with overlap
     ethr =  1.69E-10,  avg # of iterations =  2.0

     total cpu time spent up to now is      121.7 secs

     End of self-consistent calculation

          k = 0.0000 0.0000 0.0000 ( 44777 PWs)   bands (ev):

   -27.0084 -27.0063 -26.9710 -26.9710 -26.9710 -26.9710 -26.9420 -26.9419
   -26.8734 -26.8713 -10.8393 -10.7831 -10.7748 -10.7689 -10.7191 -10.7191
   -10.7000 -10.7000 -10.5869 -10.5358 -10.5053 -10.4985 -10.4985 -10.4334
   -10.4334 -10.3958 -10.3897 -10.3687 -10.3687 -10.3650 -10.3636 -10.3633
   -10.3633 -10.3619 -10.3617 -10.3617 -10.3525 -10.3496 -10.2838 -10.2838
    -4.4453  -4.1825  -3.0490  -2.9713  -1.9511  -1.7947  -0.9787  -0.9787
    -0.9451  -0.8395  -0.8395  -0.1154   0.1167   0.1353   0.1801   0.1801
     0.2426   0.4089   0.4089   0.4260   1.4783   1.6755   1.6755   2.0601
     2.0738   2.2123   2.2123   2.2592   5.5806   5.7246   6.0731   6.1192
     6.7092   6.7092   6.8618   7.2026   7.2743   7.2743   7.3024   7.4948
     7.7407   7.8770

          k = 0.0000 0.0000 0.1036 ( 44641 PWs)   bands (ev):

   -27.0082 -27.0064 -26.9710 -26.9710 -26.9709 -26.9709 -26.9420 -26.9419
   -26.8733 -26.8715 -10.8358 -10.7871 -10.7744 -10.7693 -10.7178 -10.7178
   -10.7012 -10.7012 -10.5864 -10.5516 -10.4958 -10.4958 -10.4832 -10.4418
   -10.4418 -10.3954 -10.3901 -10.3689 -10.3673 -10.3673 -10.3649 -10.3647
   -10.3647 -10.3637 -10.3523 -10.3523 -10.3517 -10.3497 -10.2873 -10.2873
    -4.4293  -4.2020  -3.0439  -2.9767  -1.9425  -1.8083  -0.9696  -0.9696
    -0.8936  -0.8489  -0.8489  -0.1807   0.1251   0.1516   0.1915   0.1915
     0.2341   0.3877   0.3877   0.3976   1.5514   1.7164   1.7164   2.0613
     2.0731   2.1793   2.1793   2.2184   5.5503   5.7032   6.1171   6.2153
     6.7425   6.7425   6.8831   7.1135   7.2333   7.2333   7.2590   7.2990
     7.9123   7.9528

          k = 0.0000 0.0000 0.2072 ( 44668 PWs)   bands (ev):

   -27.0079 -27.0068 -26.9710 -26.9710 -26.9710 -26.9710 -26.9420 -26.9419
   -26.8729 -26.8718 -10.8261 -10.7980 -10.7734 -10.7704 -10.7142 -10.7142
   -10.7046 -10.7046 -10.5844 -10.5689 -10.4878 -10.4878 -10.4586 -10.4586
   -10.4487 -10.3942 -10.3912 -10.3874 -10.3664 -10.3664 -10.3654 -10.3654
   -10.3646 -10.3639 -10.3510 -10.3500 -10.3335 -10.3335 -10.2978 -10.2978
    -4.3845  -4.2536  -3.0300  -2.9912  -1.9180  -1.8418  -0.9444  -0.9444
    -0.8747  -0.8747  -0.7532  -0.3479   0.1481   0.1968   0.2111   0.2246
     0.2246   0.3339   0.3358   0.3358   1.7254   1.8226   1.8226   2.0642
     2.0710   2.0877   2.0877   2.1015   5.5253   5.6347   6.2698   6.4150
     6.8369   6.8369   6.9424   6.9450   6.9567   7.1211   7.1211   7.1561
     7.9656   7.9656

          k = 0.0000 0.0000-0.3108 ( 44676 PWs)   bands (ev):

   -27.0074 -27.0074 -26.9710 -26.9710 -26.9710 -26.9710 -26.9419 -26.9419
   -26.8724 -26.8724 -10.8124 -10.8124 -10.7719 -10.7719 -10.7094 -10.7094
   -10.7094 -10.7094 -10.5794 -10.5794 -10.4750 -10.4750 -10.4750 -10.4750
   -10.4151 -10.4151 -10.3927 -10.3927 -10.3659 -10.3659 -10.3659 -10.3659
   -10.3643 -10.3643 -10.3504 -10.3504 -10.3138 -10.3138 -10.3138 -10.3138
    -4.3207  -4.3207  -3.0107  -3.0107  -1.8820  -1.8820  -0.9097  -0.9097
    -0.9097  -0.9097  -0.5570  -0.5570   0.1796   0.1796   0.2618   0.2618
     0.2757   0.2757   0.2757   0.2757   1.9262   1.9262   1.9586   1.9586
     1.9586   1.9586   2.0678   2.0678   5.5582   5.5582   6.4851   6.4851
     6.7811   6.7811   6.9740   6.9740   6.9740   6.9740   7.0410   7.0410
     7.9905   7.9905

          k = 0.0000 0.1666 0.0000 ( 44709 PWs)   bands (ev):

   -27.0059 -27.0040 -26.9736 -26.9733 -26.9691 -26.9690 -26.9439 -26.9438
   -26.8732 -26.8714 -10.8274 -10.7818 -10.7554 -10.7532 -10.7249 -10.7110
   -10.6903 -10.6719 -10.5798 -10.5343 -10.5165 -10.5029 -10.4926 -10.4301
   -10.4284 -10.4216 -10.4022 -10.3975 -10.3874 -10.3761 -10.3714 -10.3667
   -10.3649 -10.3625 -10.3574 -10.3556 -10.3535 -10.3450 -10.2900 -10.2862
    -4.3825  -4.1378  -3.0900  -3.0518  -2.1210  -2.0214  -0.9514  -0.8880
    -0.8347  -0.5902  -0.5162  -0.1340   0.1158   0.1361   0.1531   0.1588
     0.1678   0.3259   0.3508   0.3900   1.5054   1.7137   1.7579   1.9634
     2.0212   2.1828   2.2005   2.2073   5.6466   5.8233   6.1043   6.2087
     6.8017   6.8183   6.8549   6.9143   7.1479   7.3600   7.4686   7.5643
     7.6230   7.6354

          k = 0.0000 0.1666 0.1036 ( 44698 PWs)   bands (ev):

   -27.0058 -27.0041 -26.9736 -26.9734 -26.9691 -26.9690 -26.9439 -26.9438
   -26.8731 -26.8715 -10.8244 -10.7844 -10.7557 -10.7545 -10.7237 -10.7116
   -10.6890 -10.6732 -10.5795 -10.5505 -10.4998 -10.4945 -10.4899 -10.4413
   -10.4364 -10.4148 -10.4028 -10.3972 -10.3887 -10.3774 -10.3722 -10.3704
   -10.3656 -10.3631 -10.3551 -10.3536 -10.3481 -10.3394 -10.2923 -10.2892
    -4.3674  -4.1557  -3.0874  -3.0543  -2.1154  -2.0297  -0.9436  -0.8427
    -0.8408  -0.5871  -0.5229  -0.1915   0.1129   0.1420   0.1572   0.1715
     0.1789   0.3116   0.3340   0.3735   1.5547   1.7482   1.7930   1.9618
     2.0251   2.1241   2.1541   2.2234   5.6287   5.8006   6.1524   6.2732
     6.8059   6.8439   6.8696   6.9038   7.1203   7.2861   7.3969   7.4053
     7.6459   7.7757

          k = 0.0000 0.1666 0.2072 ( 44684 PWs)   bands (ev):

   -27.0055 -27.0045 -26.9735 -26.9734 -26.9691 -26.9690 -26.9439 -26.9438
   -26.8728 -26.8719 -10.8161 -10.7923 -10.7565 -10.7564 -10.7207 -10.7136
   -10.6857 -10.6765 -10.5783 -10.5657 -10.4908 -10.4833 -10.4684 -10.4573
   -10.4469 -10.4097 -10.4038 -10.3993 -10.3906 -10.3897 -10.3735 -10.3728
   -10.3650 -10.3639 -10.3546 -10.3539 -10.3299 -10.3261 -10.2997 -10.2979
    -4.3254  -4.2034  -3.0804  -3.0613  -2.0995  -2.0506  -0.9223  -0.8639
    -0.7119  -0.5771  -0.5399  -0.3410   0.1122   0.1406   0.1758   0.1985
     0.2253   0.2741   0.2924   0.3326   1.6785   1.8385   1.8742   1.9500
     2.0022   2.0391   2.0796   2.1826   5.6181   5.7324   6.3005   6.4051
     6.7704   6.8362   6.9338   6.9583   7.0375   7.1315   7.1958   7.2913
     7.6833   7.8083

          k = 0.0000 0.1666-0.3108 ( 44680 PWs)   bands (ev):

   -27.0050 -27.0050 -26.9735 -26.9735 -26.9690 -26.9690 -26.9439 -26.9439
   -26.8723 -26.8723 -10.8042 -10.8042 -10.7569 -10.7569 -10.7169 -10.7169
   -10.6811 -10.6811 -10.5743 -10.5743 -10.4772 -10.4772 -10.4720 -10.4720
   -10.4238 -10.4238 -10.4053 -10.4053 -10.3921 -10.3921 -10.3733 -10.3733
   -10.3645 -10.3645 -10.3542 -10.3542 -10.3126 -10.3126 -10.3109 -10.3109
    -4.2658  -4.2658  -3.0708  -3.0708  -2.0763  -2.0763  -0.8931  -0.8931
    -0.5602  -0.5602  -0.5314  -0.5314   0.1228   0.1228   0.2237   0.2237
     0.2412   0.2412   0.2812   0.2812   1.8335   1.8335   1.9344   1.9344
     1.9623   1.9623   2.1063   2.1063   5.6562   5.6562   6.4625   6.4625
     6.7343   6.7343   6.9829   6.9829   7.0537   7.0537   7.1611   7.1611
     7.7488   7.7488

          k = 0.0000 0.3332 0.0000 ( 44698 PWs)   bands (ev):

   -26.9992 -26.9975 -26.9806 -26.9799 -26.9637 -26.9637 -26.9492 -26.9491
   -26.8727 -26.8717 -10.8032 -10.7759 -10.7403 -10.7390 -10.7012 -10.6838
   -10.6237 -10.6039 -10.5591 -10.5504 -10.5289 -10.5173 -10.4816 -10.4757
   -10.4673 -10.4593 -10.4414 -10.4211 -10.4144 -10.3998 -10.3951 -10.3736
   -10.3632 -10.3604 -10.3570 -10.3555 -10.3439 -10.3236 -10.3053 -10.2936
    -4.2114  -4.0326  -3.2755  -3.2422  -2.2794  -2.2180  -0.8911  -0.8232
    -0.7271  -0.2556  -0.1489  -0.0370   0.0713   0.0935   0.1245   0.1663
     0.2200   0.3104   0.3175   0.3388   1.4160   1.5715   1.8169   1.9254
     1.9457   2.0986   2.1184   2.1772   5.7534   5.9095   6.2455   6.4619
     6.7431   6.8115   6.9744   7.0632   7.0897   7.2931   7.5320   7.6297
     7.7728   7.8379

          k = 0.0000 0.3332 0.1036 ( 44684 PWs)   bands (ev):

   -26.9991 -26.9977 -26.9805 -26.9799 -26.9637 -26.9637 -26.9492 -26.9491
   -26.8727 -26.8718 -10.8020 -10.7785 -10.7396 -10.7384 -10.7004 -10.6852
   -10.6225 -10.6054 -10.5608 -10.5571 -10.5165 -10.5123 -10.4812 -10.4755
   -10.4660 -10.4602 -10.4428 -10.4247 -10.4117 -10.4083 -10.3961 -10.3817
   -10.3628 -10.3606 -10.3567 -10.3556 -10.3356 -10.3210 -10.3042 -10.2953
    -4.1998  -4.0448  -3.2743  -3.2451  -2.2757  -2.2226  -0.8865  -0.8278
    -0.6929  -0.2877  -0.1476  -0.0308   0.0591   0.0951   0.1303   0.1692
     0.2128   0.2645   0.3429   0.3529   1.4358   1.5692   1.8364   1.8613
     2.0256   2.0402   2.0883   2.2232   5.7657   5.9113   6.2873   6.4354
     6.6620   6.8422   6.9534   7.1059   7.1297   7.3144   7.4960   7.5347
     7.7126   7.7529

          k = 0.0000 0.3332 0.2072 ( 44694 PWs)   bands (ev):

   -26.9988 -26.9980 -26.9804 -26.9800 -26.9637 -26.9637 -26.9492 -26.9492
   -26.8725 -26.8720 -10.7984 -10.7849 -10.7380 -10.7374 -10.6979 -10.6890
   -10.6191 -10.6092 -10.5637 -10.5634 -10.5000 -10.4976 -10.4798 -10.4744
   -10.4647 -10.4634 -10.4458 -10.4305 -10.4194 -10.4088 -10.3994 -10.3987
   -10.3622 -10.3611 -10.3564 -10.3558 -10.3210 -10.3146 -10.3042 -10.2999
    -4.1677  -4.0781  -3.2701  -3.2529  -2.2654  -2.2349  -0.8741  -0.8402
    -0.6012  -0.3681  -0.1385  -0.0619   0.0679   0.0968   0.1447   0.1770
     0.1938   0.2226   0.3540   0.3695   1.4841   1.5593   1.8276   1.8867
     1.9349   2.0230   2.1408   2.2433   5.8049   5.9037   6.3525   6.3827
     6.5984   6.8478   6.9957   7.1499   7.2321   7.2464   7.3539   7.4274
     7.6640   7.7428

          k = 0.0000 0.3332-0.3108 ( 44678 PWs)   bands (ev):

   -26.9984 -26.9984 -26.9802 -26.9802 -26.9637 -26.9637 -26.9492 -26.9492
   -26.8722 -26.8722 -10.7923 -10.7923 -10.7371 -10.7371 -10.6937 -10.6937
   -10.6143 -10.6143 -10.5652 -10.5652 -10.4903 -10.4903 -10.4743 -10.4743
   -10.4689 -10.4689 -10.4385 -10.4385 -10.4185 -10.4185 -10.4020 -10.4020
   -10.3617 -10.3617 -10.3560 -10.3560 -10.3097 -10.3097 -10.3067 -10.3067
    -4.1232  -4.1232  -3.2623  -3.2623  -2.2506  -2.2506  -0.8572  -0.8572
    -0.4808  -0.4808  -0.1108  -0.1108   0.0893   0.0893   0.1673   0.1673
     0.1941   0.1941   0.3664   0.3664   1.5326   1.5326   1.8502   1.8502
     1.9594   1.9594   2.2125   2.2125   5.8627   5.8627   6.3512   6.3512
     6.7283   6.7283   7.1058   7.1058   7.2213   7.2213   7.3432   7.3432
     7.6829   7.6829

          k = 0.0000-0.4997 0.0000 ( 44666 PWs)   bands (ev):

   -26.9900 -26.9900 -26.9887 -26.9887 -26.9565 -26.9565 -26.9564 -26.9564
   -26.8722 -26.8722 -10.7728 -10.7728 -10.7598 -10.7598 -10.6183 -10.6183
   -10.5880 -10.5880 -10.5418 -10.5418 -10.5259 -10.5259 -10.5173 -10.5173
   -10.5168 -10.5168 -10.4496 -10.4496 -10.4088 -10.4088 -10.3867 -10.3867
   -10.3598 -10.3598 -10.3578 -10.3578 -10.3248 -10.3248 -10.3061 -10.3061
    -4.0238  -4.0238  -3.3953  -3.3953  -2.2872  -2.2872  -0.8377  -0.8377
    -0.4942  -0.4942  -0.0770  -0.0770   0.0670   0.0670   0.1307   0.1307
     0.2274   0.2274   0.8833   0.8833   1.0114   1.0114   1.9497   1.9497
     2.0158   2.0158   2.0955   2.0955   5.8329   5.8329   6.4809   6.4809
     6.8325   6.8325   7.0301   7.0301   7.3750   7.3750   7.4883   7.4884
     7.6384   7.6384

          k = 0.0000-0.4997 0.1036 ( 44642 PWs)   bands (ev):

   -26.9900 -26.9900 -26.9887 -26.9887 -26.9565 -26.9565 -26.9564 -26.9564
   -26.8722 -26.8722 -10.7761 -10.7761 -10.7565 -10.7565 -10.6192 -10.6192
   -10.5866 -10.5866 -10.5417 -10.5417 -10.5311 -10.5311 -10.5188 -10.5188
   -10.5062 -10.5062 -10.4489 -10.4489 -10.4099 -10.4099 -10.3964 -10.3964
   -10.3595 -10.3595 -10.3579 -10.3579 -10.3195 -10.3195 -10.3058 -10.3058
    -4.0218  -4.0218  -3.3985  -3.3985  -2.2871  -2.2871  -0.8377  -0.8377
    -0.4858  -0.4858  -0.0709  -0.0709   0.0518   0.0518   0.1319   0.1319
     0.2264   0.2264   0.8876   0.8876   1.0118   1.0118   1.9313   1.9313
     1.9663   1.9663   2.1621   2.1621   5.8571   5.8571   6.4693   6.4693
     6.7614   6.7614   7.0649   7.0649   7.3942   7.3942   7.5413   7.5413
     7.5641   7.5642

          k = 0.0000-0.4997 0.2072 ( 44652 PWs)   bands (ev):

   -26.9899 -26.9899 -26.9888 -26.9888 -26.9565 -26.9565 -26.9564 -26.9564
   -26.8722 -26.8722 -10.7806 -10.7806 -10.7521 -10.7521 -10.6209 -10.6209
   -10.5839 -10.5839 -10.5417 -10.5417 -10.5360 -10.5360 -10.5191 -10.5191
   -10.4904 -10.4904 -10.4474 -10.4474 -10.4173 -10.4173 -10.4107 -10.4107
   -10.3591 -10.3591 -10.3581 -10.3581 -10.3115 -10.3115 -10.3053 -10.3053
    -4.0178  -4.0178  -3.4050  -3.4050  -2.2868  -2.2868  -0.8377  -0.8377
    -0.4685  -0.4685  -0.0527  -0.0527   0.0170   0.0170   0.1327   0.1327
     0.2242   0.2242   0.8963   0.8963   1.0126   1.0126   1.8658   1.8658
     1.9599   1.9599   2.2310   2.2310   5.9229   5.9229   6.3611   6.3611
     6.7773   6.7773   7.0951   7.0951   7.3711   7.3711   7.4203   7.4203
     7.7005   7.7005

          k = 0.0000-0.4997-0.3108 ( 44744 PWs)   bands (ev):

   -26.9899 -26.9899 -26.9888 -26.9888 -26.9564 -26.9564 -26.9564 -26.9564
   -26.8722 -26.8722 -10.7824 -10.7824 -10.7504 -10.7504 -10.6217 -10.6217
   -10.5826 -10.5826 -10.5419 -10.5419 -10.5375 -10.5375 -10.5193 -10.5193
   -10.4807 -10.4807 -10.4467 -10.4467 -10.4284 -10.4284 -10.4124 -10.4124
   -10.3589 -10.3589 -10.3582 -10.3582 -10.3083 -10.3083 -10.3050 -10.3050
    -4.0157  -4.0157  -3.4083  -3.4083  -2.2867  -2.2867  -0.8378  -0.8378
    -0.4595  -0.4595  -0.0283  -0.0283  -0.0155  -0.0155   0.1326   0.1326
     0.2230   0.2230   0.9007   0.9007   1.0130   1.0130   1.8384   1.8384
     1.9599   1.9599   2.2568   2.2568   5.9761   5.9761   6.2713   6.2713
     6.8396   6.8396   7.0947   7.0947   7.3049   7.3049   7.3973   7.3973
     7.8086   7.8086

          k = 0.1666 0.1666 0.0000 ( 44693 PWs)   bands (ev):

   -27.0035 -27.0016 -26.9717 -26.9717 -26.9715 -26.9711 -26.9459 -26.9458
   -26.8730 -26.8715 -10.8129 -10.7616 -10.7564 -10.7498 -10.6945 -10.6926
   -10.6845 -10.6769 -10.5732 -10.5333 -10.5224 -10.5039 -10.4901 -10.4372
   -10.4310 -10.4199 -10.4120 -10.3997 -10.3989 -10.3907 -10.3859 -10.3776
   -10.3708 -10.3697 -10.3674 -10.3643 -10.3565 -10.3305 -10.3000 -10.2843
    -4.3198  -4.0910  -3.1090  -3.0971  -2.3060  -2.2485  -0.8330  -0.6775
    -0.6012  -0.4877  -0.4228  -0.1383   0.0526   0.1009   0.1211   0.1242
     0.1597   0.2147   0.3540   0.3930   1.5334   1.7151   1.8571   1.9076
     1.9528   2.1084   2.1244   2.2390   5.6881   5.8741   6.1368   6.2992
     6.7132   6.8945   6.9205   6.9953   7.0574   7.1777   7.3255   7.6234
     7.6366   7.7200

          k = 0.1666 0.1666 0.1036 ( 44697 PWs)   bands (ev):

   -27.0034 -27.0018 -26.9717 -26.9717 -26.9715 -26.9711 -26.9459 -26.9458
   -26.8729 -26.8716 -10.8101 -10.7661 -10.7558 -10.7498 -10.6935 -10.6918
   -10.6845 -10.6781 -10.5730 -10.5487 -10.5016 -10.5003 -10.4874 -10.4458
   -10.4383 -10.4166 -10.4131 -10.4006 -10.3985 -10.3921 -10.3864 -10.3754
   -10.3706 -10.3706 -10.3679 -10.3676 -10.3498 -10.3264 -10.3001 -10.2879
    -4.3056  -4.1076  -3.1081  -3.0977  -2.3028  -2.2534  -0.7899  -0.6736
    -0.6077  -0.4839  -0.4277  -0.1939   0.0572   0.1011   0.1132   0.1342
     0.1594   0.2345   0.3315   0.3848   1.5586   1.7684   1.8696   1.9081
     1.9593   2.0348   2.1447   2.2158   5.6843   5.8558   6.1912   6.3289
     6.6934   6.8978   6.9142   7.0176   7.0533   7.1656   7.3151   7.4781
     7.6982   7.7252

          k = 0.1666 0.1666 0.2072 ( 44680 PWs)   bands (ev):

   -27.0031 -27.0021 -26.9717 -26.9717 -26.9714 -26.9712 -26.9459 -26.9458
   -26.8727 -26.8719 -10.8021 -10.7770 -10.7543 -10.7507 -10.6908 -10.6898
   -10.6850 -10.6813 -10.5721 -10.5617 -10.4930 -10.4798 -10.4717 -10.4628
   -10.4509 -10.4194 -10.4128 -10.4051 -10.3976 -10.3948 -10.3869 -10.3813
   -10.3702 -10.3701 -10.3691 -10.3680 -10.3329 -10.3172 -10.3022 -10.2981
    -4.2661  -4.1520  -3.1056  -3.0997  -2.2938  -2.2657  -0.6716  -0.6622
    -0.6243  -0.4730  -0.4408  -0.3324   0.0704   0.0974   0.1046   0.1454
     0.1700   0.2763   0.2795   0.3604   1.6411   1.8825   1.8910   1.9049
     1.9137   2.0033   2.1104   2.1538   5.6931   5.8028   6.3310   6.3884
     6.6615   6.9057   6.9072   6.9756   7.0914   7.1762   7.2466   7.2834
     7.6689   7.7568

          k = 0.1666 0.1666-0.3108 ( 44662 PWs)   bands (ev):

   -27.0026 -27.0026 -26.9717 -26.9717 -26.9713 -26.9713 -26.9458 -26.9458
   -26.8723 -26.8723 -10.7902 -10.7902 -10.7524 -10.7524 -10.6882 -10.6882
   -10.6850 -10.6850 -10.5689 -10.5689 -10.4800 -10.4800 -10.4681 -10.4681
   -10.4393 -10.4393 -10.4096 -10.4096 -10.3964 -10.3964 -10.3857 -10.3857
   -10.3698 -10.3698 -10.3687 -10.3687 -10.3140 -10.3140 -10.3081 -10.3081
    -4.2103  -4.2103  -3.1025  -3.1025  -2.2806  -2.2806  -0.6446  -0.6446
    -0.5070  -0.5070  -0.4566  -0.4566   0.0848   0.0848   0.1206   0.1206
     0.2207   0.2207   0.3224   0.3224   1.7673   1.7673   1.9019   1.9019
     2.0157   2.0157   2.0755   2.0755   5.7368   5.7368   6.4204   6.4204
     6.7586   6.7586   6.9130   6.9130   7.1606   7.1606   7.2176   7.2176
     7.7223   7.7231

          k = 0.1666 0.3332 0.0000 ( 44704 PWs)   bands (ev):

   -26.9969 -26.9953 -26.9785 -26.9778 -26.9662 -26.9659 -26.9513 -26.9512
   -26.8726 -26.8717 -10.7846 -10.7538 -10.7313 -10.7264 -10.6799 -10.6728
   -10.6279 -10.6123 -10.5541 -10.5475 -10.5314 -10.5149 -10.4787 -10.4750
   -10.4671 -10.4601 -10.4487 -10.4312 -10.4205 -10.4041 -10.3921 -10.3861
   -10.3809 -10.3763 -10.3744 -10.3668 -10.3523 -10.3172 -10.3119 -10.2879
    -4.1482  -3.9779  -3.2681  -3.2233  -2.5125  -2.4784  -0.6785  -0.5548
    -0.5122  -0.2303  -0.2087  -0.0979   0.0169   0.0839   0.1027   0.1506
     0.1995   0.2782   0.3182   0.4096   1.4479   1.5620   1.7850   1.8475
     1.9893   2.0008   2.0613   2.2386   5.7367   5.8643   6.2579   6.5536
     6.6139   6.6992   6.9778   7.1305   7.1926   7.3538   7.3827   7.5181
     7.7558   7.7667

          k = 0.1666 0.3332 0.1036 ( 44673 PWs)   bands (ev):

   -26.9968 -26.9954 -26.9785 -26.9779 -26.9662 -26.9660 -26.9513 -26.9512
   -26.8726 -26.8718 -10.7834 -10.7569 -10.7320 -10.7240 -10.6805 -10.6728
   -10.6268 -10.6132 -10.5555 -10.5525 -10.5217 -10.5103 -10.4782 -10.4752
   -10.4657 -10.4604 -10.4512 -10.4358 -10.4214 -10.4071 -10.3953 -10.3852
   -10.3817 -10.3770 -10.3751 -10.3693 -10.3445 -10.3140 -10.3105 -10.2907
    -4.1372  -3.9896  -3.2659  -3.2268  -2.5106  -2.4812  -0.6482  -0.5526
    -0.5148  -0.2711  -0.2000  -0.0764   0.0015   0.0736   0.1128   0.1526
     0.2041   0.2514   0.3264   0.4146   1.4594   1.5612   1.7654   1.8808
     1.9234   2.0337   2.0823   2.2316   5.7617   5.8828   6.2912   6.4808
     6.5730   6.7395   6.9580   7.1832   7.2024   7.3223   7.3409   7.5640
     7.6583   7.7503

          k = 0.1666 0.3332 0.2072 ( 44675 PWs)   bands (ev):

   -26.9965 -26.9957 -26.9783 -26.9780 -26.9661 -26.9660 -26.9513 -26.9512
   -26.8724 -26.8720 -10.7797 -10.7643 -10.7320 -10.7205 -10.6815 -10.6730
   -10.6238 -10.6159 -10.5581 -10.5573 -10.5063 -10.4984 -10.4772 -10.4759
   -10.4663 -10.4604 -10.4581 -10.4411 -10.4268 -10.4141 -10.3967 -10.3880
   -10.3829 -10.3803 -10.3743 -10.3710 -10.3285 -10.3091 -10.3078 -10.2990
    -4.1066  -4.0213  -3.2589  -3.2362  -2.5052  -2.4883  -0.5676  -0.5476
    -0.5207  -0.3566  -0.1725  -0.0768  -0.0076   0.0556   0.1309   0.1569
     0.1975   0.2166   0.3385   0.4203   1.4928   1.5554   1.7481   1.8328
     1.9433   2.0483   2.1170   2.2111   5.8323   5.9223   6.2894   6.3496
     6.6020   6.8067   6.9470   7.1570   7.1710   7.2910   7.3356   7.5017
     7.6165   7.7413

          k = 0.1666 0.3332-0.3108 ( 44658 PWs)   bands (ev):

   -26.9961 -26.9961 -26.9782 -26.9781 -26.9661 -26.9660 -26.9513 -26.9513
   -26.8722 -26.8722 -10.7752 -10.7705 -10.7317 -10.7191 -10.6820 -10.6732
   -10.6199 -10.6196 -10.5593 -10.5587 -10.4974 -10.4890 -10.4767 -10.4762
   -10.4741 -10.4645 -10.4539 -10.4429 -10.4328 -10.4175 -10.3950 -10.3922
   -10.3830 -10.3810 -10.3741 -10.3714 -10.3127 -10.3118 -10.3068 -10.3064
[...]
    -3.9862  -3.9862  -3.4115  -3.4115  -2.6412  -2.6412  -0.5593  -0.5593
    -0.5015  -0.5015  -0.2742  -0.2742  -0.0235  -0.0235   0.0804   0.0804
     0.1814   0.1814   0.7850   0.7850   0.9381   0.9381   1.8467   1.8467
     1.8698   1.8698   2.1313   2.1313   5.6829   5.6829   6.4316   6.4316
     6.8185   6.8185   6.9374   6.9374   7.3226   7.3226   7.3699   7.3699
     7.6127   7.6127

          k = 0.1642-0.4925 0.1058 ( 45064 PWs)   bands (ev):

   -27.0731 -27.0731 -26.9860 -26.9860 -26.9844 -26.9844 -26.9609 -26.9609
   -26.9608 -26.9608 -10.8068 -10.8068 -10.7309 -10.7309 -10.6566 -10.6566
   -10.6342 -10.6342 -10.5819 -10.5819 -10.5651 -10.5651 -10.5521 -10.5521
   -10.5237 -10.5237 -10.4992 -10.4992 -10.4656 -10.4656 -10.4323 -10.4323
   -10.4228 -10.4228 -10.3960 -10.3960 -10.3847 -10.3847 -10.3823 -10.3823
    -3.9840  -3.9840  -3.4148  -3.4148  -2.6413  -2.6413  -0.5592  -0.5592
    -0.5032  -0.5032  -0.2542  -0.2542  -0.0260  -0.0260   0.0716   0.0716
     0.1737   0.1737   0.7888   0.7888   0.9386   0.9386   1.7766   1.7766
     1.9273   1.9273   2.1414   2.1414   5.7222   5.7222   6.4237   6.4237
     6.6972   6.6972   7.0389   7.0389   7.2518   7.2518   7.4323   7.4323
     7.5352   7.5352

          k = 0.1642-0.4925 0.2116 ( 45070 PWs)   bands (ev):

   -27.0731 -27.0731 -26.9860 -26.9860 -26.9844 -26.9844 -26.9609 -26.9609
   -26.9608 -26.9608 -10.8121 -10.8121 -10.7194 -10.7194 -10.6617 -10.6617
   -10.6293 -10.6293 -10.5880 -10.5880 -10.5647 -10.5647 -10.5517 -10.5517
   -10.5224 -10.5224 -10.4991 -10.4991 -10.4774 -10.4774 -10.4258 -10.4258
   -10.4183 -10.4183 -10.3961 -10.3961 -10.3849 -10.3849 -10.3832 -10.3832
    -3.9797  -3.9797  -3.4213  -3.4213  -2.6414  -2.6414  -0.5569  -0.5569
    -0.5093  -0.5093  -0.2045  -0.2045  -0.0356  -0.0356   0.0455   0.0455
     0.1623   0.1623   0.7962   0.7962   0.9396   0.9396   1.7131   1.7131
     1.9638   1.9638   2.1634   2.1634   5.8366   5.8366   6.2636   6.2636
     6.7422   6.7422   7.0494   7.0494   7.1982   7.1982   7.3754   7.3754
     7.6269   7.6269

          k = 0.1642-0.4925-0.3174 ( 45100 PWs)   bands (ev):

   -27.0731 -27.0731 -26.9861 -26.9861 -26.9843 -26.9843 -26.9609 -26.9609
   -26.9608 -26.9608 -10.8144 -10.8144 -10.7133 -10.7133 -10.6647 -10.6647
   -10.6263 -10.6263 -10.5918 -10.5918 -10.5643 -10.5643 -10.5517 -10.5517
   -10.5216 -10.5216 -10.4994 -10.4994 -10.4816 -10.4816 -10.4270 -10.4270
   -10.4125 -10.4125 -10.3968 -10.3968 -10.3851 -10.3851 -10.3836 -10.3836
    -3.9774  -3.9774  -3.4246  -3.4246  -2.6415  -2.6415  -0.5544  -0.5544
    -0.5138  -0.5138  -0.1693  -0.1693  -0.0484  -0.0484   0.0285   0.0285
     0.1585   0.1585   0.7998   0.7998   0.9401   0.9401   1.6890   1.6890
     1.9739   1.9739   2.1748   2.1748   5.9748   5.9748   6.0844   6.0844
     6.8586   6.8586   6.9973   6.9973   7.1442   7.1442   7.3500   7.3500
     7.7313   7.7313

          k = 0.3283 0.3283 0.0000 ( 45069 PWs)   bands (ev):

   -27.0736 -27.0726 -26.9882 -26.9862 -26.9737 -26.9736 -26.9728 -26.9717
   -26.9591 -26.9590 -10.8142 -10.7673 -10.7080 -10.6880 -10.6873 -10.6408
   -10.6330 -10.6224 -10.6164 -10.5944 -10.5922 -10.5596 -10.5575 -10.5420
   -10.4918 -10.4906 -10.4829 -10.4716 -10.4631 -10.4554 -10.4490 -10.4372
   -10.4298 -10.4269 -10.4248 -10.4184 -10.4172 -10.4150 -10.3940 -10.3861
    -4.0010  -3.8560  -3.3471  -3.2606  -2.9516  -2.9180  -0.5864  -0.4141
    -0.3418  -0.2495  -0.1574  -0.0864  -0.0748  -0.0493   0.1205   0.1350
     0.2030   0.2057   0.2724   0.3399   1.3664   1.4404   1.4462   1.6383
     1.7643   1.9061   2.1240   2.2474   5.5660   5.6246   6.2084   6.4190
     6.6169   6.8088   6.8642   7.1577   7.2498   7.3486   7.4313   7.5896
     7.6348   7.6477

          k = 0.3283 0.3283 0.1058 ( 45059 PWs)   bands (ev):

   -27.0735 -27.0726 -26.9880 -26.9863 -26.9737 -26.9736 -26.9727 -26.9718
   -26.9591 -26.9590 -10.8127 -10.7746 -10.7004 -10.6860 -10.6818 -10.6418
   -10.6347 -10.6250 -10.6180 -10.5993 -10.5900 -10.5598 -10.5572 -10.5475
   -10.4896 -10.4881 -10.4830 -10.4715 -10.4640 -10.4579 -10.4474 -10.4320
   -10.4299 -10.4254 -10.4245 -10.4186 -10.4166 -10.4158 -10.3947 -10.3893
    -3.9914  -3.8658  -3.3415  -3.2666  -2.9501  -2.9212  -0.5798  -0.3895
    -0.3857  -0.2164  -0.1498  -0.0886  -0.0712  -0.0370   0.0901   0.1465
     0.1752   0.2032   0.2835   0.3370   1.3721   1.4370   1.4409   1.6101
     1.7904   1.9131   2.1290   2.2364   5.6128   5.6728   6.2166   6.4628
     6.5791   6.6118   6.9287   7.1297   7.2742   7.3127   7.4137   7.4745
     7.6199   7.6969

          k = 0.3283 0.3283 0.2116 ( 45049 PWs)   bands (ev):

   -27.0733 -27.0728 -26.9877 -26.9867 -26.9737 -26.9736 -26.9725 -26.9720
   -26.9591 -26.9591 -10.8081 -10.7880 -10.6880 -10.6816 -10.6668 -10.6432
   -10.6425 -10.6273 -10.6211 -10.6119 -10.5844 -10.5656 -10.5563 -10.5537
   -10.4873 -10.4837 -10.4806 -10.4710 -10.4672 -10.4646 -10.4358 -10.4302
   -10.4296 -10.4255 -10.4203 -10.4194 -10.4165 -10.4113 -10.3992 -10.3965
    -3.9651  -3.8925  -3.3260  -3.2828  -2.9455  -2.9290  -0.5584  -0.4604
    -0.3119  -0.1946  -0.1328  -0.0969  -0.0497  -0.0107   0.0444   0.0881
     0.1757   0.1964   0.3006   0.3286   1.3872   1.4266   1.4454   1.5473
     1.8453   1.9162   2.1454   2.2080   5.7462   5.8090   6.1463   6.2943
     6.5769   6.6815   6.8398   7.0514   7.1616   7.3520   7.3641   7.5645
     7.5744   7.8377

          k = 0.3283 0.3283-0.3174 ( 45016 PWs)   bands (ev):

   -27.0731 -27.0731 -26.9872 -26.9872 -26.9736 -26.9736 -26.9722 -26.9722
   -26.9591 -26.9591 -10.7999 -10.7999 -10.6802 -10.6802 -10.6544 -10.6544
   -10.6332 -10.6332 -10.6226 -10.6226 -10.5760 -10.5760 -10.5552 -10.5552
   -10.4850 -10.4850 -10.4734 -10.4734 -10.4688 -10.4688 -10.4307 -10.4307
   -10.4250 -10.4250 -10.4209 -10.4209 -10.4106 -10.4106 -10.4027 -10.4027
    -3.9290  -3.9290  -3.3046  -3.3046  -2.9380  -2.9380  -0.5190  -0.5190
    -0.2301  -0.2301  -0.1137  -0.1137  -0.0062  -0.0062   0.0255   0.0255
     0.1868   0.1868   0.3161   0.3161   1.4070   1.4070   1.4843   1.4843
     1.8938   1.8938   2.1737   2.1737   5.9276   5.9276   6.0467   6.0467
     6.7128   6.7128   6.8757   6.8757   7.1997   7.1997   7.4514   7.4514
     7.7220   7.7220

          k = 0.3283-0.4925 0.0000 ( 45090 PWs)   bands (ev):

   -27.0730 -27.0730 -26.9807 -26.9807 -26.9796 -26.9796 -26.9662 -26.9662
   -26.9658 -26.9658 -10.7856 -10.7856 -10.6930 -10.6930 -10.6406 -10.6406
   -10.6152 -10.6152 -10.5753 -10.5753 -10.5553 -10.5553 -10.5423 -10.5423
   -10.5278 -10.5278 -10.5123 -10.5123 -10.4594 -10.4594 -10.4553 -10.4553
   -10.4368 -10.4368 -10.4353 -10.4353 -10.4196 -10.4196 -10.3892 -10.3892
    -3.8058  -3.8058  -3.3771  -3.3771  -3.0571  -3.0571  -0.4438  -0.4438
    -0.4024  -0.4024  -0.1236  -0.1236   0.0612   0.0612   0.1538   0.1538
     0.1587   0.1587   0.8005   0.8005   0.9300   0.9300   1.5140   1.5140
     1.8243   1.8243   2.2212   2.2212   5.5319   5.5319   6.2199   6.2199
     6.8927   6.8927   7.1518   7.1518   7.1647   7.1647   7.5505   7.5505
     7.5649   7.5649

          k = 0.3283-0.4925 0.1058 ( 45060 PWs)   bands (ev):

   -27.0730 -27.0730 -26.9807 -26.9807 -26.9796 -26.9796 -26.9662 -26.9662
   -26.9658 -26.9658 -10.7869 -10.7869 -10.6878 -10.6878 -10.6404 -10.6404
   -10.6182 -10.6182 -10.5811 -10.5811 -10.5537 -10.5537 -10.5426 -10.5426
   -10.5266 -10.5266 -10.5117 -10.5117 -10.4647 -10.4647 -10.4466 -10.4466
   -10.4365 -10.4365 -10.4339 -10.4339 -10.4207 -10.4207 -10.3917 -10.3917
    -3.8040  -3.8040  -3.3787  -3.3787  -3.0583  -3.0583  -0.4895  -0.4895
    -0.3412  -0.3412  -0.1139  -0.1139   0.0600   0.0600   0.1234   0.1234
     0.1654   0.1654   0.8034   0.8034   0.9300   0.9300   1.4999   1.4999
     1.8346   1.8346   2.2191   2.2191   5.5828   5.5828   6.2568   6.2568
     6.7488   6.7488   7.0828   7.0828   7.1916   7.1916   7.5286   7.5286
     7.6242   7.6243

          k = 0.3283-0.4925 0.2116 ( 45080 PWs)   bands (ev):

   -27.0730 -27.0730 -26.9808 -26.9808 -26.9796 -26.9796 -26.9662 -26.9662
   -26.9658 -26.9658 -10.7891 -10.7891 -10.6746 -10.6746 -10.6413 -10.6413
   -10.6267 -10.6267 -10.5896 -10.5896 -10.5513 -10.5513 -10.5439 -10.5439
   -10.5246 -10.5246 -10.5108 -10.5108 -10.4668 -10.4668 -10.4407 -10.4407
   -10.4366 -10.4366 -10.4253 -10.4253 -10.4227 -10.4227 -10.3989 -10.3989
    -3.8002  -3.8002  -3.3820  -3.3820  -3.0607  -3.0607  -0.5298  -0.5298
    -0.2614  -0.2614  -0.0885  -0.0885   0.0360   0.0360   0.0816   0.0816
     0.1667   0.1667   0.8090   0.8090   0.9299   0.9299   1.4736   1.4736
     1.8530   1.8530   2.2150   2.2150   5.7205   5.7205   6.2691   6.2691
     6.5928   6.5928   6.9243   6.9243   7.2524   7.2524   7.4896   7.4896
     7.6748   7.6748

          k = 0.3283-0.4925-0.3174 ( 45088 PWs)   bands (ev):

   -27.0730 -27.0730 -26.9808 -26.9808 -26.9795 -26.9795 -26.9662 -26.9662
   -26.9658 -26.9658 -10.7902 -10.7902 -10.6636 -10.6636 -10.6458 -10.6458
   -10.6319 -10.6319 -10.5929 -10.5929 -10.5499 -10.5499 -10.5451 -10.5451
   -10.5237 -10.5237 -10.5106 -10.5106 -10.4669 -10.4669 -10.4397 -10.4397
   -10.4367 -10.4367 -10.4247 -10.4247 -10.4138 -10.4138 -10.4077 -10.4077
    -3.7983  -3.7983  -3.3837  -3.3837  -3.0619  -3.0619  -0.5441  -0.5441
    -0.2204  -0.2204  -0.0547  -0.0547  -0.0184  -0.0184   0.0758   0.0758
     0.1668   0.1668   0.8117   0.8117   0.9299   0.9299   1.4614   1.4614
     1.8613   1.8613   2.2129   2.2129   5.8403   5.8403   6.1602   6.1602
     6.6545   6.6545   6.7944   6.7944   7.3401   7.3401   7.3838   7.3838
     7.7382   7.7382

          k =-0.4925-0.4925 0.0000 ( 45068 PWs)   bands (ev):

   -27.0729 -27.0729 -26.9741 -26.9741 -26.9740 -26.9740 -26.9729 -26.9729
   -26.9714 -26.9714 -10.7772 -10.7772 -10.6744 -10.6744 -10.6160 -10.6160
   -10.5930 -10.5930 -10.5634 -10.5634 -10.5633 -10.5633 -10.5459 -10.5459
   -10.5232 -10.5232 -10.5145 -10.5145 -10.4804 -10.4804 -10.4729 -10.4729
   -10.4617 -10.4617 -10.4545 -10.4545 -10.4189 -10.4189 -10.3884 -10.3884
    -3.5930  -3.5930  -3.4245  -3.4245  -3.2961  -3.2961  -0.5122  -0.5122
    -0.2811  -0.2811  -0.2460  -0.2460   0.1483   0.1483   0.1569   0.1569
     0.6049   0.6049   0.7621   0.7621   0.8544   0.8544   1.2175   1.2175
     1.8084   1.8084   2.2594   2.2594   5.4592   5.4592   6.1090   6.1090
     7.0623   7.0623   7.2091   7.2091   7.2734   7.2734   7.3525   7.3525
     7.6470   7.6470

          k =-0.4925-0.4925 0.1058 ( 45048 PWs)   bands (ev):

   -27.0729 -27.0729 -26.9741 -26.9741 -26.9740 -26.9740 -26.9729 -26.9729
   -26.9714 -26.9714 -10.7772 -10.7772 -10.6705 -10.6705 -10.6157 -10.6157
   -10.6027 -10.6027 -10.5639 -10.5639 -10.5597 -10.5597 -10.5465 -10.5465
   -10.5226 -10.5226 -10.5151 -10.5151 -10.4802 -10.4802 -10.4734 -10.4734
   -10.4599 -10.4599 -10.4484 -10.4484 -10.4200 -10.4200 -10.3918 -10.3918
    -3.5927  -3.5927  -3.4164  -3.4164  -3.3053  -3.3053  -0.5335  -0.5335
    -0.2558  -0.2558  -0.2213  -0.2213   0.1193   0.1193   0.1570   0.1570
     0.6049   0.6049   0.7699   0.7699   0.8491   0.8491   1.2134   1.2134
     1.8063   1.8063   2.2580   2.2580   5.5109   5.5109   6.1680   6.1680
     6.9088   6.9088   6.9814   6.9814   7.2339   7.2339   7.6264   7.6264
     7.6990   7.6990

          k =-0.4925-0.4925 0.2116 ( 45032 PWs)   bands (ev):

   -27.0729 -27.0729 -26.9740 -26.9740 -26.9740 -26.9740 -26.9730 -26.9730
   -26.9714 -26.9714 -10.7774 -10.7774 -10.6594 -10.6594 -10.6221 -10.6221
   -10.6149 -10.6149 -10.5652 -10.5652 -10.5546 -10.5546 -10.5483 -10.5483
   -10.5209 -10.5209 -10.5166 -10.5166 -10.4798 -10.4798 -10.4743 -10.4743
   -10.4563 -10.4563 -10.4336 -10.4336 -10.4225 -10.4225 -10.4016 -10.4016
    -3.5922  -3.5922  -3.3939  -3.3939  -3.3298  -3.3298  -0.5673  -0.5673
    -0.2137  -0.2137  -0.1529  -0.1529   0.0427   0.0427   0.1574   0.1574
     0.6049   0.6049   0.7893   0.7893   0.8343   0.8343   1.2051   1.2051
     1.8024   1.8024   2.2553   2.2553   5.6423   5.6423   6.3305   6.3305
     6.5585   6.5585   6.7909   6.7909   7.3083   7.3083   7.5486   7.5486
     7.7753   7.7754

          k =-0.4925-0.4925-0.3174 ( 45072 PWs)   bands (ev):

   -27.0729 -27.0729 -26.9740 -26.9740 -26.9740 -26.9740 -26.9730 -26.9730
   -26.9714 -26.9714 -10.7774 -10.7774 -10.6425 -10.6425 -10.6425 -10.6425
   -10.6145 -10.6145 -10.5658 -10.5658 -10.5510 -10.5510 -10.5510 -10.5510
   -10.5187 -10.5187 -10.5187 -10.5187 -10.4797 -10.4797 -10.4747 -10.4747
   -10.4544 -10.4544 -10.4239 -10.4239 -10.4165 -10.4165 -10.4165 -10.4165
    -3.5919  -3.5919  -3.3624  -3.3624  -3.3624  -3.3624  -0.5816  -0.5816
    -0.1952  -0.1952  -0.0570  -0.0570  -0.0570  -0.0570   0.1575   0.1575
     0.6050   0.6050   0.8129   0.8129   0.8129   0.8129   1.2008   1.2008
     1.8005   1.8005   2.2539   2.2539   5.7371   5.7371   6.3895   6.3895
     6.5562   6.5562   6.5562   6.5562   7.4251   7.4251   7.4254   7.4254
     7.8801   7.8801

     the Fermi energy is     4.0689 ev

!    total energy              =   -1400.36282068 Ry
     estimated scf accuracy    <          1.2E-12 Ry
     smearing contrib. (-TS)   =       0.00000000 Ry
     internal energy E=F+TS    =   -1400.36282068 Ry

     The total energy is F=E-TS. E is the sum of the following terms:
     one-electron contribution =    -231.16599161 Ry
     hartree contribution      =     156.42439838 Ry
     xc contribution           =    -148.36137589 Ry
     ewald contribution        =    -415.09616617 Ry
     one-center paw contrib.   =    -762.16368539 Ry

     convergence has been achieved in  11 iterations

     Forces acting on atoms (cartesian axes, Ry/au):

     atom    1 type  3   force =     0.00000000    0.00000000    0.00000000
     atom    2 type  3   force =     0.00000000    0.00000000    0.00000000
     atom    3 type  3   force =     0.00018002    0.00018002    0.00000000
     atom    4 type  3   force =    -0.00018002    0.00018002    0.00000000
     atom    5 type  3   force =    -0.00018002   -0.00018002    0.00000000
     atom    6 type  3   force =    -0.00018002    0.00018002    0.00000000
     atom    7 type  3   force =    -0.00018002   -0.00018002    0.00000000
     atom    8 type  3   force =     0.00018002   -0.00018002    0.00000000
     atom    9 type  3   force =     0.00018002   -0.00018002    0.00000000
     atom   10 type  3   force =     0.00018002    0.00018002    0.00000000
     atom   11 type  1   force =     0.00000000    0.00000000    0.00000000
     atom   12 type  1   force =     0.00000000    0.00000000    0.00000000
     atom   13 type  1   force =     0.00000000    0.00000000    0.00000000
     atom   14 type  1   force =     0.00000000    0.00000000    0.00000000
     atom   15 type  1   force =     0.00000000    0.00000000    0.00000000
     atom   16 type  1   force =     0.00000000    0.00000000    0.00000000
     atom   17 type  2   force =    -0.00015786   -0.00028892    0.00023781
     atom   18 type  2   force =     0.00015786   -0.00028892   -0.00023781
     atom   19 type  2   force =     0.00028892    0.00015786   -0.00023781
     atom   20 type  2   force =     0.00015786   -0.00028892    0.00023781
     atom   21 type  2   force =     0.00028892    0.00015786    0.00023781
     atom   22 type  2   force =     0.00015786    0.00028892    0.00023781
     atom   23 type  2   force =    -0.00028892    0.00015786    0.00023781
     atom   24 type  2   force =     0.00015786    0.00028892   -0.00023781
     atom   25 type  2   force =    -0.00028892    0.00015786   -0.00023781
     atom   26 type  2   force =     0.00028892   -0.00015786    0.00023781
     atom   27 type  2   force =    -0.00015786   -0.00028892   -0.00023781
     atom   28 type  2   force =     0.00028892   -0.00015786   -0.00023781
     atom   29 type  2   force =    -0.00015786    0.00028892   -0.00023781
     atom   30 type  2   force =    -0.00028892   -0.00015786   -0.00023781
     atom   31 type  2   force =    -0.00015786    0.00028892    0.00023781
     atom   32 type  2   force =    -0.00028892   -0.00015786    0.00023781
     atom   33 type  2   force =     0.00000000    0.00000000   -0.00008582
     atom   34 type  2   force =     0.00000000    0.00000000    0.00008582
     atom   35 type  2   force =     0.00000000    0.00000000   -0.00008582
     atom   36 type  2   force =     0.00000000    0.00000000    0.00008582
     atom   37 type  2   force =     0.00081798    0.00001952   -0.00000000
     atom   38 type  2   force =    -0.00081798    0.00001952    0.00000000
     atom   39 type  2   force =    -0.00001952   -0.00081798    0.00000000
     atom   40 type  2   force =    -0.00081798   -0.00001952   -0.00000000
     atom   41 type  2   force =     0.00001952   -0.00081798   -0.00000000
     atom   42 type  2   force =    -0.00001952    0.00081798   -0.00000000
     atom   43 type  2   force =     0.00081798   -0.00001952    0.00000000
     atom   44 type  2   force =     0.00001952    0.00081798    0.00000000

     Total force =     0.002923     Total SCF correction =     0.000000


     Computing stress (Cartesian axis) and pressure

          total   stress  (Ry/bohr**3)                   (kbar)     P=        0.04
   0.00000040   0.00000000   0.00000000            0.06        0.00        0.00
   0.00000000   0.00000040   0.00000000            0.00        0.06        0.00
   0.00000000   0.00000000  -0.00000008            0.00        0.00       -0.01


     Writing all to output data dir ./k5al3h14.save/
 
     init_run     :      8.15s CPU      8.38s WALL (       2 calls)
     electrons    :   1428.34s CPU   1446.13s WALL (      26 calls)
     update_pot   :     15.86s CPU     16.06s WALL (      24 calls)
     forces       :     52.25s CPU     52.94s WALL (      26 calls)
     stress       :    521.85s CPU    525.56s WALL (      26 calls)

     Called by init_run:
     wfcinit      :      6.22s CPU      6.33s WALL (       2 calls)
     potinit      :      0.51s CPU      0.54s WALL (       2 calls)
     hinit0       :      0.71s CPU      0.76s WALL (       2 calls)

     Called by electrons:
     c_bands      :   1209.30s CPU   1220.77s WALL (     223 calls)
     sum_band     :    175.89s CPU    178.94s WALL (     223 calls)
     v_of_rho     :      6.85s CPU      6.91s WALL (     230 calls)
     newd         :     18.22s CPU     19.70s WALL (     230 calls)
     PAW_pot      :     18.34s CPU     19.08s WALL (     254 calls)
     mix_rho      :      2.92s CPU      2.95s WALL (     223 calls)

     Called by c_bands:
     init_us_2    :     20.50s CPU     20.68s WALL (    7336 calls)
     init_us_2:cp :     20.43s CPU     20.64s WALL (    7336 calls)
     cegterg      :   1099.21s CPU   1107.98s WALL (    3131 calls)

     Called by *egterg:
     cdiaghg      :     90.56s CPU     91.05s WALL (   13511 calls)
     h_psi        :    563.19s CPU    568.79s WALL (   14150 calls)
     s_psi        :     42.56s CPU     42.90s WALL (   14150 calls)
     g_psi        :      1.70s CPU      1.72s WALL (   10991 calls)

     Called by h_psi:
     h_psi:calbec :    128.49s CPU    129.31s WALL (   14150 calls)
     vloc_psi     :    387.02s CPU    391.40s WALL (   14150 calls)
     add_vuspsi   :     43.74s CPU     44.11s WALL (   14150 calls)

     General routines
     calbec       :    549.23s CPU    552.47s WALL (   19428 calls)
     fft          :      9.87s CPU      9.98s WALL (    3631 calls)
     ffts         :      1.00s CPU      1.00s WALL (     453 calls)
     fftw         :    461.87s CPU    466.94s WALL ( 1707478 calls)
     interpolate  :      1.13s CPU      1.14s WALL (     230 calls)
 
     Parallel routines
 
     PWSCF        :  34m 0.91s CPU  34m24.96s WALL

 
   This run was terminated on:  11:36:27  28Nov2023            

=------------------------------------------------------------------------------=
   JOB DONE.
=------------------------------------------------------------------------------=
Job execution finished at: Tue Nov 28 11:36:28 IST 2023
