==========================================
SLURM_CLUSTER_NAME = paramganga
SLURM_ARRAY_JOB_ID = 
SLURM_ARRAY_TASK_ID = 
SLURM_ARRAY_TASK_COUNT = 
SLURM_ARRAY_TASK_MAX = 
SLURM_ARRAY_TASK_MIN = 
SLURM_JOB_ACCOUNT = iitr
SLURM_JOB_ID = 173898
SLURM_JOB_NAME = 19280
SLURM_JOB_NODELIST = cn[169-171]
SLURM_JOB_USER = garima.iitr
SLURM_JOB_UID = 38339
SLURM_JOB_PARTITION = small
SLURM_TASK_PID = 47731
SLURM_SUBMIT_DIR = /home/garima.iitr/.cache/.es/compmat/k5ak3h14
SLURM_CPUS_ON_NODE = 48
SLURM_NTASKS = 144
SLURM_TASK_PID = 47731
==========================================
cn169
 
:: initializing oneAPI environment ...
   slurm_script: BASH_VERSION = 4.2.46(2)-release
   args: Using "$@" for setvars.sh arguments: 
:: advisor -- latest
:: ccl -- latest
:: clck -- latest
:: compiler -- latest
:: dal -- latest
:: debugger -- latest
:: dev-utilities -- latest
:: dnnl -- latest
:: dpcpp-ct -- latest
:: dpl -- latest
:: inspector -- latest
:: intelpython -- latest
:: ipp -- latest
:: ippcp -- latest
:: ipp -- latest
:: itac -- latest
:: mkl -- latest
:: mpi -- latest
:: tbb -- latest
:: vpl -- latest
:: vtune -- latest
:: oneAPI environment initialized ::
 
Job execution start: Mon Nov 27 22:07:59 IST 2023
Job submitted by garima.iitr
The job ID is:173898

     Program PWSCF v.7.1 starts on 27Nov2023 at 22: 8: 1 

     This program is part of the open-source Quantum ESPRESSO suite
     for quantum simulation of materials; please cite
         "P. Giannozzi et al., J. Phys.:Condens. Matter 21 395502 (2009);
         "P. Giannozzi et al., J. Phys.:Condens. Matter 29 465901 (2017);
         "P. Giannozzi et al., J. Chem. Phys. 152 154105 (2020);
          URL http://www.quantum-espresso.org", 
     in publications or presentations arising from this work. More details at
     http://www.quantum-espresso.org/quote

     Parallel version (MPI & OpenMP), running on     144 processor cores
     Number of MPI processes:               144
     Threads/MPI process:                     1

     MPI processes distributed on     3 nodes
     169965 MiB available memory on the printing compute node when the environment starts
 
     Reading input from k5al3h14.in

     Current dimensions of program PWSCF are:
     Max number of different atomic species (ntypx) = 10
     Max number of k-points (npk) =  40000
     Max angular momentum in pseudopotentials (lmaxx) =  4
     file Al.pbe-n-kjpaw_psl.1.0.0.UPF: wavefunction(s)  3S 3P renormalized
     file K.pbe-spn-kjpaw_psl.1.0.0.UPF: wavefunction(s)  3S renormalized

     IMPORTANT: XC functional enforced from input :
     Exchange-correlation= PBE
                           (   1   4   3   4   0   0   0)
     Any further DFT definition will be discarded
     Please, verify this is what you really want

     Message from routine setup:
     using ibrav=0 with symmetry is DISCOURAGED, use correct ibrav instead
 
     K-points division:     npool     =       3
     R & G space division:  proc/nbgrp/npool/nimage =      48
     Subspace diagonalization in iterative solution of the eigenvalue problem:
     a serial algorithm will be used

 
     Parallelization info
     --------------------
     sticks:   dense  smooth     PW     G-vecs:    dense   smooth      PW
     Min         115      92     25                10397     7446    1049
     Max         116      93     26                10405     7454    1056
     Sum        5521    4429   1201               499319   357613   50463
 
     Using Slab Decomposition
 


     bravais-lattice index     =            0
     lattice parameter (alat)  =      13.6251  a.u.
     unit-cell volume          =    4073.9414 (a.u.)^3
     number of atoms/cell      =           44
     number of atomic types    =            3
     number of electrons       =       136.00
     number of Kohn-Sham states=           82
     kinetic-energy cutoff     =      75.0000  Ry
     charge density cutoff     =     375.0000  Ry
     scf convergence threshold =      1.0E-08
     mixing beta               =       0.7000
     number of iterations used =            8  plain     mixing
     energy convergence thresh.=      1.0E-04
     force convergence thresh. =      1.0E-03
     Exchange-correlation= PBE
                           (   1   4   3   4   0   0   0)
     nstep                     =           50


     celldm(1)=  13.625077  celldm(2)=   0.000000  celldm(3)=   0.000000
     celldm(4)=   0.000000  celldm(5)=   0.000000  celldm(6)=   0.000000

     crystal axes: (cart. coord. in units of alat)
               a(1) = (   1.000000   0.000000   0.000000 )  
               a(2) = (   0.000000   1.000000   0.000000 )  
               a(3) = (   0.000000   0.000000   1.610638 )  

     reciprocal axes: (cart. coord. in units 2 pi/alat)
               b(1) = (  1.000000  0.000000  0.000000 )  
               b(2) = (  0.000000  1.000000  0.000000 )  
               b(3) = (  0.000000  0.000000  0.620872 )  


     PseudoPot. # 1 for Al read from file:
     /home/garima.iitr/.cache/.es/compmat/kalh4/Al.pbe-n-kjpaw_psl.1.0.0.UPF
     MD5 check sum: 502b6b27b9c6270cab5dd1084b96fa6d
     Pseudo is Projector augmented-wave + core cor, Zval =  3.0
     Generated using &quot;atomic&quot; code by A. Dal Corso  v.6.3
     Shape of augmentation charge: PSQ
     Using radial grid of 1135 points,  6 beta functions with: 
                l(1) =   0
                l(2) =   0
                l(3) =   1
                l(4) =   1
                l(5) =   2
                l(6) =   2
     Q(r) pseudized with 0 coefficients 


     PseudoPot. # 2 for H  read from file:
     /home/garima.iitr/.cache/.es/compmat/kalh4/H.pbe-rrkjus_psl.1.0.0.UPF
     MD5 check sum: 3f4114867bd07edc7f1424d066fc1888
     Pseudo is Ultrasoft, Zval =  1.0
     Generated using &quot;atomic&quot; code by A. Dal Corso  v.6.3MaX
     Using radial grid of  929 points,  2 beta functions with: 
                l(1) =   0
                l(2) =   0
     Q(r) pseudized with 0 coefficients 


     PseudoPot. # 3 for K  read from file:
     /home/garima.iitr/.cache/.es/compmat/kalh4/K.pbe-spn-kjpaw_psl.1.0.0.UPF
     MD5 check sum: 34cc42130a09071ebe376fd42eb21491
     Pseudo is Projector augmented-wave + core cor, Zval =  9.0
     Generated using &quot;atomic&quot; code by A. Dal Corso  v.6.2.2
     Shape of augmentation charge: PSQ
     Using radial grid of 1165 points,  6 beta functions with: 
                l(1) =   0
                l(2) =   0
                l(3) =   1
                l(4) =   1
                l(5) =   2
                l(6) =   2
     Q(r) pseudized with 0 coefficients 


     atomic species   valence    mass     pseudopotential
        Al             3.00    26.98100     Al( 1.00)
        H              1.00     1.00750     H ( 1.00)
        K              9.00    39.09830     K ( 1.00)

     16 Sym. Ops., with inversion, found ( 8 have fractional translation)



   Cartesian axes

     site n.     atom                  positions (alat units)
         1           K   tau(   1) = (   0.0000000   0.0000000   0.8053190  )
         2           K   tau(   2) = (   0.5000000   0.5000000   0.0000000  )
         3           K   tau(   3) = (   0.2873500   0.7873500   0.4026595  )
         4           K   tau(   4) = (   0.2126500   0.2873500   0.4026595  )
         5           K   tau(   5) = (   0.7126500   0.2126500   0.4026595  )
         6           K   tau(   6) = (   0.2126500   0.2873500   1.2079785  )
         7           K   tau(   7) = (   0.7126500   0.2126500   1.2079785  )
         8           K   tau(   8) = (   0.7873500   0.7126500   0.4026595  )
         9           K   tau(   9) = (   0.7873500   0.7126500   1.2079785  )
        10           K   tau(  10) = (   0.2873500   0.7873500   1.2079785  )
        11           Al  tau(  11) = (   0.0000000   0.0000000   0.0000000  )
        12           Al  tau(  12) = (   0.5000000   0.5000000   0.8053190  )
        13           Al  tau(  13) = (   0.0000000   0.5000000   0.0000000  )
        14           Al  tau(  14) = (   0.5000000   0.0000000   0.8053190  )
        15           Al  tau(  15) = (   0.0000000   0.5000000   0.8053190  )
        16           Al  tau(  16) = (   0.5000000   0.0000000   0.0000000  )
        17           H   tau(  17) = (   0.5438000   0.8200500   0.1892661  )
        18           H   tau(  18) = (   0.9562000   0.3200500   0.6160529  )
        19           H   tau(  19) = (   0.6799500   0.9562000   0.6160529  )
        20           H   tau(  20) = (   0.9562000   0.3200500   0.9945850  )
        21           H   tau(  21) = (   0.6799500   0.9562000   0.9945850  )
        22           H   tau(  22) = (   0.4562000   0.1799500   0.1892661  )
        23           H   tau(  23) = (   0.8200500   0.4562000   0.1892661  )
        24           H   tau(  24) = (   0.4562000   0.1799500   1.4213719  )
        25           H   tau(  25) = (   0.8200500   0.4562000   1.4213719  )
        26           H   tau(  26) = (   0.1799500   0.5438000   0.1892661  )
        27           H   tau(  27) = (   0.5438000   0.8200500   1.4213719  )
        28           H   tau(  28) = (   0.1799500   0.5438000   1.4213719  )
        29           H   tau(  29) = (   0.0438000   0.6799500   0.6160529  )
        30           H   tau(  30) = (   0.3200500   0.0438000   0.6160529  )
        31           H   tau(  31) = (   0.0438000   0.6799500   0.9945850  )
        32           H   tau(  32) = (   0.3200500   0.0438000   0.9945850  )
        33           H   tau(  33) = (   0.0000000   0.0000000   0.2746138  )
        34           H   tau(  34) = (   0.5000000   0.5000000   0.5307052  )
        35           H   tau(  35) = (   0.5000000   0.5000000   1.0799327  )
        36           H   tau(  36) = (   0.0000000   0.0000000   1.3360242  )
        37           H   tau(  37) = (   0.7523700   0.0751200   0.0000000  )
        38           H   tau(  38) = (   0.7476300   0.5751200   0.8053190  )
        39           H   tau(  39) = (   0.4248800   0.7476300   0.8053190  )
        40           H   tau(  40) = (   0.2476300   0.9248800   0.0000000  )
        41           H   tau(  41) = (   0.0751200   0.2476300   0.0000000  )
        42           H   tau(  42) = (   0.9248800   0.7523700   0.0000000  )
        43           H   tau(  43) = (   0.2523700   0.4248800   0.8053190  )
        44           H   tau(  44) = (   0.5751200   0.2523700   0.8053190  )

     number of k points=    40  Marzari-Vanderbilt smearing, width (Ry)=  0.0050
                       cart. coord. in units 2pi/alat
        k(    1) = (   0.0000000   0.0000000   0.0000000), wk =   0.0092593
        k(    2) = (   0.0000000   0.0000000   0.1034787), wk =   0.0185185
        k(    3) = (   0.0000000   0.0000000   0.2069573), wk =   0.0185185
        k(    4) = (   0.0000000   0.0000000  -0.3104360), wk =   0.0092593
        k(    5) = (   0.0000000   0.1666667   0.0000000), wk =   0.0370370
        k(    6) = (   0.0000000   0.1666667   0.1034787), wk =   0.0740741
        k(    7) = (   0.0000000   0.1666667   0.2069573), wk =   0.0740741
        k(    8) = (   0.0000000   0.1666667  -0.3104360), wk =   0.0370370
        k(    9) = (   0.0000000   0.3333333   0.0000000), wk =   0.0370370
        k(   10) = (   0.0000000   0.3333333   0.1034787), wk =   0.0740741
        k(   11) = (   0.0000000   0.3333333   0.2069573), wk =   0.0740741
        k(   12) = (   0.0000000   0.3333333  -0.3104360), wk =   0.0370370
        k(   13) = (   0.0000000  -0.5000000   0.0000000), wk =   0.0185185
        k(   14) = (   0.0000000  -0.5000000   0.1034787), wk =   0.0370370
        k(   15) = (   0.0000000  -0.5000000   0.2069573), wk =   0.0370370
        k(   16) = (   0.0000000  -0.5000000  -0.3104360), wk =   0.0185185
        k(   17) = (   0.1666667   0.1666667   0.0000000), wk =   0.0370370
        k(   18) = (   0.1666667   0.1666667   0.1034787), wk =   0.0740741
        k(   19) = (   0.1666667   0.1666667   0.2069573), wk =   0.0740741
        k(   20) = (   0.1666667   0.1666667  -0.3104360), wk =   0.0370370
        k(   21) = (   0.1666667   0.3333333   0.0000000), wk =   0.0740741
        k(   22) = (   0.1666667   0.3333333   0.1034787), wk =   0.1481481
        k(   23) = (   0.1666667   0.3333333   0.2069573), wk =   0.1481481
        k(   24) = (   0.1666667   0.3333333  -0.3104360), wk =   0.0740741
        k(   25) = (   0.1666667  -0.5000000   0.0000000), wk =   0.0370370
        k(   26) = (   0.1666667  -0.5000000   0.1034787), wk =   0.0740741
        k(   27) = (   0.1666667  -0.5000000   0.2069573), wk =   0.0740741
        k(   28) = (   0.1666667  -0.5000000  -0.3104360), wk =   0.0370370
        k(   29) = (   0.3333333   0.3333333   0.0000000), wk =   0.0370370
        k(   30) = (   0.3333333   0.3333333   0.1034787), wk =   0.0740741
        k(   31) = (   0.3333333   0.3333333   0.2069573), wk =   0.0740741
        k(   32) = (   0.3333333   0.3333333  -0.3104360), wk =   0.0370370
        k(   33) = (   0.3333333  -0.5000000   0.0000000), wk =   0.0370370
        k(   34) = (   0.3333333  -0.5000000   0.1034787), wk =   0.0740741
        k(   35) = (   0.3333333  -0.5000000   0.2069573), wk =   0.0740741
        k(   36) = (   0.3333333  -0.5000000  -0.3104360), wk =   0.0370370
        k(   37) = (  -0.5000000  -0.5000000   0.0000000), wk =   0.0092593
        k(   38) = (  -0.5000000  -0.5000000   0.1034787), wk =   0.0185185
        k(   39) = (  -0.5000000  -0.5000000   0.2069573), wk =   0.0185185
        k(   40) = (  -0.5000000  -0.5000000  -0.3104360), wk =   0.0092593

     Dense  grid:   499319 G-vectors     FFT dimensions: (  90,  90, 144)

     Smooth grid:   357613 G-vectors     FFT dimensions: (  80,  80, 128)

     Estimated max dynamical RAM per process >      47.97 MB

     Estimated total dynamical RAM >       6.51 GB

     Check: negative core charge=   -0.000001

     Initial potential from superposition of free atoms

     starting charge     135.7977, renormalised to     136.0000
     Starting wfcs are  132 randomized atomic wfcs
     Checking if some PAW data can be deallocated... 

     total cpu time spent up to now is        2.4 secs

     Self-consistent Calculation

     iteration #  1     ecut=    75.00 Ry     beta= 0.70
     Davidson diagonalization with overlap
     ethr =  1.00E-02,  avg # of iterations =  6.2

     total cpu time spent up to now is        6.7 secs

     total energy              =   -1399.85010425 Ry
     estimated scf accuracy    <       2.03594559 Ry

     iteration #  2     ecut=    75.00 Ry     beta= 0.70
     Davidson diagonalization with overlap
     ethr =  1.50E-03,  avg # of iterations =  2.0

     total cpu time spent up to now is        9.7 secs

     total energy              =   -1400.14647604 Ry
     estimated scf accuracy    <       0.03852317 Ry

     iteration #  3     ecut=    75.00 Ry     beta= 0.70
     Davidson diagonalization with overlap
     ethr =  2.83E-05,  avg # of iterations = 14.9

     total cpu time spent up to now is       16.7 secs

     total energy              =   -1400.16458340 Ry
     estimated scf accuracy    <       0.01242630 Ry

     iteration #  4     ecut=    75.00 Ry     beta= 0.70
     Davidson diagonalization with overlap
     ethr =  9.14E-06,  avg # of iterations =  7.0

     total cpu time spent up to now is       21.0 secs

     total energy              =   -1400.16818589 Ry
     estimated scf accuracy    <       0.00089676 Ry

     iteration #  5     ecut=    75.00 Ry     beta= 0.70
     Davidson diagonalization with overlap
     c_bands:  1 eigenvalues not converged
     ethr =  6.59E-07,  avg # of iterations =  4.7

     total cpu time spent up to now is       24.9 secs

     total energy              =   -1400.16837377 Ry
     estimated scf accuracy    <       0.00004875 Ry

     iteration #  6     ecut=    75.00 Ry     beta= 0.70
     Davidson diagonalization with overlap
     ethr =  3.58E-08,  avg # of iterations =  3.2

     total cpu time spent up to now is       28.3 secs

     total energy              =   -1400.16839135 Ry
     estimated scf accuracy    <       0.00000317 Ry

     iteration #  7     ecut=    75.00 Ry     beta= 0.70
     Davidson diagonalization with overlap
     ethr =  2.33E-09,  avg # of iterations =  4.1

     total cpu time spent up to now is       31.6 secs

     total energy              =   -1400.16839231 Ry
     estimated scf accuracy    <       0.00000054 Ry

     iteration #  8     ecut=    75.00 Ry     beta= 0.70
     Davidson diagonalization with overlap
     ethr =  3.94E-10,  avg # of iterations =  3.0

     total cpu time spent up to now is       34.7 secs

     total energy              =   -1400.16839249 Ry
     estimated scf accuracy    <       0.00000005 Ry

     iteration #  9     ecut=    75.00 Ry     beta= 0.70
     Davidson diagonalization with overlap
     ethr =  3.39E-11,  avg # of iterations =  3.2

     total cpu time spent up to now is       38.2 secs

     End of self-consistent calculation

          k = 0.0000 0.0000 0.0000 ( 44777 PWs)   bands (ev):

   -26.6871 -26.6802 -26.6438 -26.6430 -26.6430 -26.6429 -26.6429 -26.6368
   -26.6112 -26.6111 -10.5576 -10.4916 -10.4851 -10.4830 -10.4299 -10.4299
   -10.3989 -10.3989 -10.3203 -10.2696 -10.2551 -10.2432 -10.2432 -10.1588
   -10.1588 -10.1539 -10.1539 -10.1023 -10.0944 -10.0893 -10.0643 -10.0643
   -10.0374 -10.0374 -10.0264 -10.0261 -10.0237 -10.0216 -10.0197 -10.0197
    -4.4004  -4.1218  -2.7832  -2.6824  -1.6498  -1.4359  -1.2336  -1.2336
    -1.0875  -1.0875  -0.9008   0.1789   0.2489   0.3105   0.3105   0.3115
     0.4505   0.6038   0.6672   0.6672   1.0757   1.4195   1.4195   1.6522
     1.6656   2.0585   2.0935   2.0935   5.0202   5.3869   5.8359   6.0518
     6.7217   6.7218   6.8051   6.9384   7.1041   7.1041   7.3293   7.6598
     7.6855   7.8080

          k = 0.0000 0.0000 0.1035 ( 44641 PWs)   bands (ev):

   -26.6867 -26.6807 -26.6432 -26.6430 -26.6430 -26.6429 -26.6429 -26.6372
   -26.6112 -26.6111 -10.5533 -10.4912 -10.4887 -10.4856 -10.4279 -10.4279
   -10.4010 -10.4010 -10.3203 -10.2914 -10.2408 -10.2408 -10.2249 -10.1817
   -10.1817 -10.1299 -10.1299 -10.1018 -10.0964 -10.0950 -10.0662 -10.0662
   -10.0370 -10.0370 -10.0264 -10.0261 -10.0235 -10.0218 -10.0218 -10.0217
    -4.3835  -4.1425  -2.7767  -2.6894  -1.6393  -1.4591  -1.2241  -1.2241
    -1.0976  -1.0976  -0.8364   0.0690   0.2620   0.3261   0.3261   0.3287
     0.4365   0.5729   0.6264   0.6264   1.1942   1.4805   1.4805   1.6540
     1.6654   2.0126   2.0554   2.0554   5.0208   5.3442   5.8875   6.1144
     6.7529   6.7529   6.8072   6.9218   7.0937   7.0937   7.2785   7.3951
     7.6633   7.6634

          k = 0.0000 0.0000 0.2070 ( 44668 PWs)   bands (ev):

   -26.6856 -26.6821 -26.6430 -26.6430 -26.6430 -26.6430 -26.6418 -26.6384
   -26.6112 -26.6111 -10.5410 -10.5038 -10.4900 -10.4868 -10.4222 -10.4222
   -10.4066 -10.4066 -10.3199 -10.3086 -10.2335 -10.2335 -10.2037 -10.2037
   -10.1854 -10.1167 -10.1054 -10.1054 -10.1004 -10.0964 -10.0726 -10.0726
   -10.0353 -10.0353 -10.0268 -10.0268 -10.0263 -10.0261 -10.0230 -10.0220
    -4.3361  -4.1974  -2.7588  -2.7084  -1.6094  -1.5097  -1.1980  -1.1980
    -1.1250  -1.1250  -0.6674  -0.1704   0.2981   0.3721   0.3721   0.3760
     0.3987   0.5125   0.5375   0.5375   1.4320   1.6254   1.6254   1.6581
     1.6646   1.8800   1.9491   1.9491   5.0459   5.2374   6.0339   6.2289
     6.8177   6.8381   6.8381   6.8829   7.0464   7.0464   7.0927   7.1453
     7.6815   7.6819

          k = 0.0000 0.0000-0.3104 ( 44676 PWs)   bands (ev):

   -26.6839 -26.6839 -26.6430 -26.6430 -26.6430 -26.6430 -26.6400 -26.6400
   -26.6111 -26.6111 -10.5231 -10.5231 -10.4884 -10.4884 -10.4144 -10.4144
   -10.4144 -10.4144 -10.3170 -10.3170 -10.2211 -10.2211 -10.2211 -10.2211
   -10.1477 -10.1477 -10.0984 -10.0984 -10.0856 -10.0856 -10.0856 -10.0856
   -10.0320 -10.0320 -10.0320 -10.0320 -10.0262 -10.0262 -10.0224 -10.0224
    -4.2686  -4.2686  -2.7339  -2.7339  -1.5639  -1.5639  -1.1618  -1.1618
    -1.1618  -1.1618  -0.4332  -0.4332   0.3480   0.3480   0.4422   0.4422
     0.4454   0.4454   0.4454   0.4454   1.6622   1.6622   1.6769   1.6769
     1.7955   1.7955   1.7955   1.7955   5.1221   5.1221   6.2053   6.2053
     6.8434   6.8434   6.9505   6.9505   6.9505   6.9505   7.0163   7.0163
     7.7965   7.7978

          k = 0.0000 0.1667 0.0000 ( 44709 PWs)   bands (ev):

   -26.6846 -26.6777 -26.6492 -26.6455 -26.6409 -26.6408 -26.6401 -26.6369
   -26.6133 -26.6132 -10.5444 -10.4893 -10.4694 -10.4590 -10.4349 -10.4119
   -10.4016 -10.3704 -10.3120 -10.2705 -10.2618 -10.2478 -10.2360 -10.1737
   -10.1517 -10.1499 -10.1495 -10.0985 -10.0959 -10.0921 -10.0841 -10.0693
   -10.0639 -10.0452 -10.0446 -10.0423 -10.0362 -10.0225 -10.0217 -10.0205
    -4.3364  -4.0779  -2.8465  -2.8013  -1.8983  -1.7887  -1.2042  -1.0942
    -0.8368  -0.6697  -0.6661   0.1396   0.2560   0.2667   0.2924   0.3127
     0.3504   0.5395   0.5647   0.5888   1.1395   1.4656   1.5378   1.6209
     1.6431   1.9894   2.0528   2.0857   5.0892   5.4763   5.9260   6.1475
     6.7109   6.7157   6.8043   6.8145   6.9905   7.0728   7.1780   7.4074
     7.5427   7.6773

          k = 0.0000 0.1667 0.1035 ( 44698 PWs)   bands (ev):

   -26.6842 -26.6783 -26.6488 -26.6456 -26.6409 -26.6408 -26.6399 -26.6371
   -26.6133 -26.6132 -10.5407 -10.4913 -10.4697 -10.4628 -10.4329 -10.4128
   -10.3995 -10.3726 -10.3122 -10.2901 -10.2449 -10.2341 -10.2332 -10.1861
   -10.1771 -10.1375 -10.1250 -10.1012 -10.0996 -10.0945 -10.0844 -10.0692
   -10.0645 -10.0451 -10.0450 -10.0426 -10.0355 -10.0229 -10.0219 -10.0217
    -4.3205  -4.0969  -2.8435  -2.8043  -1.8925  -1.7988  -1.1968  -1.1016
    -0.7871  -0.6695  -0.6661   0.0453   0.2335   0.3007   0.3117   0.3283
     0.3372   0.5151   0.5589   0.5666   1.2128   1.5103   1.5567   1.6231
     1.6744   1.9253   2.0197   2.0779   5.0969   5.4382   5.9649   6.1817
     6.7180   6.7219   6.8315   6.8457   6.9847   7.0853   7.1477   7.3381
     7.5002   7.5276

          k = 0.0000 0.1667 0.2070 ( 44684 PWs)   bands (ev):

   -26.6831 -26.6797 -26.6479 -26.6460 -26.6409 -26.6408 -26.6394 -26.6378
   -26.6133 -26.6133 -10.5302 -10.4999 -10.4705 -10.4687 -10.4278 -10.4159
   -10.3941 -10.3785 -10.3122 -10.3040 -10.2360 -10.2279 -10.2033 -10.2014
   -10.1959 -10.1253 -10.1208 -10.1048 -10.1027 -10.0909 -10.0846 -10.0723
   -10.0625 -10.0482 -10.0447 -10.0436 -10.0336 -10.0261 -10.0223 -10.0222
    -4.2762  -4.1474  -2.8351  -2.8125  -1.8762  -1.8233  -1.1767  -1.1217
    -0.7024  -0.6776  -0.6028  -0.1666   0.2318   0.2857   0.3546   0.3618
     0.3859   0.4708   0.4898   0.5296   1.3858   1.5804   1.5860   1.6626
     1.7747   1.7785   1.9282   2.0209   5.1346   5.3363   6.0791   6.2360
     6.7355   6.7652   6.8711   6.8916   6.9996   7.0354   7.1636   7.1957
     7.2945   7.4042

          k = 0.0000 0.1667-0.3104 ( 44680 PWs)   bands (ev):

   -26.6815 -26.6815 -26.6468 -26.6468 -26.6409 -26.6409 -26.6387 -26.6387
   -26.6133 -26.6133 -10.5149 -10.5149 -10.4707 -10.4707 -10.4214 -10.4214
   -10.3864 -10.3864 -10.3103 -10.3103 -10.2214 -10.2214 -10.2177 -10.2177
   -10.1583 -10.1583 -10.1095 -10.1095 -10.0929 -10.0929 -10.0795 -10.0795
   -10.0556 -10.0556 -10.0442 -10.0442 -10.0303 -10.0303 -10.0224 -10.0224
    -4.2133  -4.2133  -2.8237  -2.8237  -1.8516  -1.8516  -1.1491  -1.1491
    -0.6864  -0.6864  -0.4033  -0.4033   0.2523   0.2523   0.4086   0.4086
     0.4216   0.4216   0.4618   0.4618   1.5847   1.5847   1.5962   1.5962
     1.7921   1.7921   1.9118   1.9118   5.2192   5.2192   6.2058   6.2058
     6.7843   6.7843   6.8644   6.8644   7.0402   7.0402   7.1282   7.1282
     7.2824   7.2824

          k = 0.0000 0.3333 0.0000 ( 44698 PWs)   bands (ev):

   -26.6776 -26.6710 -26.6577 -26.6523 -26.6384 -26.6372 -26.6350 -26.6350
   -26.6191 -26.6191 -10.5166 -10.4820 -10.4483 -10.4438 -10.4132 -10.3834
   -10.3368 -10.2990 -10.2860 -10.2857 -10.2690 -10.2598 -10.2138 -10.2077
   -10.1678 -10.1611 -10.1390 -10.1266 -10.1264 -10.1106 -10.1087 -10.1022
   -10.1000 -10.0729 -10.0685 -10.0637 -10.0328 -10.0246 -10.0231 -10.0224
    -4.1632  -3.9776  -3.0885  -3.0518  -2.0416  -1.9602  -1.1539  -1.0906
    -0.6552  -0.0796  -0.0703  -0.0324   0.2530   0.2567   0.2692   0.2764
     0.3294   0.3756   0.4623   0.4780   1.1375   1.3570   1.5910   1.6323
     1.7523   1.8560   1.9399   2.0469   5.2409   5.6734   5.8928   6.4189
     6.4504   6.5087   6.6918   7.0336   7.0454   7.0624   7.2718   7.3142
     7.5099   7.6351

          k = 0.0000 0.3333 0.1035 ( 44684 PWs)   bands (ev):

   -26.6773 -26.6716 -26.6572 -26.6526 -26.6383 -26.6372 -26.6350 -26.6350
   -26.6191 -26.6191 -10.5153 -10.4857 -10.4467 -10.4432 -10.4120 -10.3860
   -10.3348 -10.3027 -10.2924 -10.2879 -10.2538 -10.2523 -10.2132 -10.2077
   -10.1739 -10.1620 -10.1452 -10.1374 -10.1177 -10.1168 -10.1078 -10.1065
   -10.0933 -10.0710 -10.0637 -10.0632 -10.0324 -10.0252 -10.0230 -10.0225
    -4.1510  -3.9902  -3.0875  -3.0553  -2.0368  -1.9667  -1.1498  -1.0949
    -0.6141  -0.1201  -0.0735  -0.0220   0.2159   0.2204   0.2712   0.2988
     0.3497   0.3837   0.4537   0.4909   1.1695   1.3535   1.5742   1.6177
     1.7884   1.8264   1.9249   2.0725   5.2629   5.6496   5.9060   6.3153
     6.4659   6.5981   6.7209   7.0347   7.0476   7.1044   7.2248   7.2631
     7.4445   7.6540

          k = 0.0000 0.3333 0.2070 ( 44694 PWs)   bands (ev):

   -26.6763 -26.6731 -26.6559 -26.6533 -26.6381 -26.6375 -26.6350 -26.6350
   -26.6191 -26.6191 -10.5112 -10.4944 -10.4437 -10.4422 -10.4080 -10.3927
   -10.3291 -10.3111 -10.2963 -10.2918 -10.2389 -10.2222 -10.2116 -10.2083
   -10.1941 -10.1666 -10.1529 -10.1411 -10.1330 -10.1210 -10.1082 -10.1068
   -10.0753 -10.0683 -10.0642 -10.0589 -10.0312 -10.0269 -10.0230 -10.0227
    -4.1175  -4.0245  -3.0832  -3.0642  -2.0235  -1.9833  -1.1384  -1.1068
    -0.5022  -0.2110  -0.0773  -0.0398   0.1619   0.1806   0.3045   0.3173
     0.3755   0.3836   0.4463   0.4991   1.2475   1.3444   1.5223   1.6508
     1.6952   1.8494   1.9602   2.0842   5.3304   5.5635   5.9591   6.1787
     6.5385   6.6744   6.8117   7.0149   7.0785   7.1226   7.1494   7.1932
     7.3113   7.5722

          k = 0.0000 0.3333-0.3104 ( 44678 PWs)   bands (ev):

   -26.6748 -26.6748 -26.6545 -26.6545 -26.6378 -26.6378 -26.6350 -26.6350
   -26.6191 -26.6191 -10.5039 -10.5039 -10.4420 -10.4420 -10.4010 -10.4010
   -10.3206 -10.3206 -10.2953 -10.2953 -10.2181 -10.2181 -10.2098 -10.2098
   -10.1889 -10.1889 -10.1531 -10.1531 -10.1270 -10.1270 -10.1075 -10.1075
   -10.0658 -10.0658 -10.0628 -10.0628 -10.0292 -10.0292 -10.0229 -10.0229
    -4.0713  -4.0713  -3.0749  -3.0749  -2.0042  -2.0042  -1.1227  -1.1227
    -0.3516  -0.3516  -0.0685  -0.0685   0.1581   0.1581   0.3270   0.3270
     0.3732   0.3732   0.4773   0.4773   1.3183   1.3183   1.5463   1.5463
     1.7748   1.7748   2.0441   2.0441   5.4396   5.4396   6.0548   6.0548
     6.6463   6.6463   6.9464   6.9464   7.0750   7.0750   7.1200   7.1200
     7.4067   7.4067

          k = 0.0000-0.5000 0.0000 ( 44666 PWs)   bands (ev):

   -26.6679 -26.6679 -26.6617 -26.6617 -26.6376 -26.6376 -26.6271 -26.6271
   -26.6270 -26.6270 -10.4819 -10.4819 -10.4661 -10.4661 -10.3369 -10.3369
   -10.2879 -10.2879 -10.2635 -10.2635 -10.2513 -10.2513 -10.2389 -10.2389
   -10.2051 -10.2051 -10.1719 -10.1719 -10.1240 -10.1240 -10.1104 -10.1104
   -10.0976 -10.0976 -10.0664 -10.0664 -10.0285 -10.0285 -10.0236 -10.0236
    -3.9758  -3.9758  -3.2264  -3.2264  -2.0230  -2.0230  -1.1085  -1.1085
    -0.3858  -0.3858   0.0974   0.0974   0.2442   0.2442   0.2708   0.2708
     0.3882   0.3882   0.7212   0.7212   0.8976   0.8976   1.7219   1.7219
     1.7580   1.7580   1.9479   1.9479   5.4648   5.4648   6.0512   6.0512
     6.7834   6.7835   6.8161   6.8161   7.0756   7.0759   7.2476   7.2476
     7.6764   7.6768

          k = 0.0000-0.5000 0.1035 ( 44642 PWs)   bands (ev):

   -26.6679 -26.6679 -26.6617 -26.6617 -26.6376 -26.6376 -26.6271 -26.6271
   -26.6270 -26.6270 -10.4870 -10.4870 -10.4610 -10.4610 -10.3381 -10.3381
   -10.2841 -10.2841 -10.2633 -10.2633 -10.2530 -10.2530 -10.2344 -10.2344
   -10.2051 -10.2051 -10.1716 -10.1716 -10.1332 -10.1332 -10.1244 -10.1244
   -10.0808 -10.0808 -10.0658 -10.0658 -10.0285 -10.0285 -10.0235 -10.0235
    -3.9738  -3.9738  -3.2299  -3.2299  -2.0228  -2.0228  -1.1086  -1.1086
    -0.3729  -0.3729   0.0945   0.0945   0.2367   0.2367   0.2603   0.2603
     0.3909   0.3909   0.7361   0.7361   0.8981   0.8981   1.6594   1.6594
     1.7629   1.7629   1.9989   1.9989   5.4900   5.4900   6.0173   6.0173
     6.7377   6.7377   6.8655   6.8655   7.0437   7.0437   7.3297   7.3297
     7.4669   7.4669

          k = 0.0000-0.5000 0.2070 ( 44652 PWs)   bands (ev):

   -26.6679 -26.6679 -26.6617 -26.6617 -26.6376 -26.6376 -26.6271 -26.6271
   -26.6271 -26.6271 -10.4934 -10.4934 -10.4545 -10.4545 -10.3402 -10.3402
   -10.2765 -10.2765 -10.2633 -10.2633 -10.2555 -10.2555 -10.2220 -10.2220
   -10.2050 -10.2050 -10.1739 -10.1739 -10.1590 -10.1590 -10.1272 -10.1272
   -10.0668 -10.0668 -10.0646 -10.0646 -10.0286 -10.0286 -10.0233 -10.0233
    -3.9698  -3.9698  -3.2370  -3.2370  -2.0225  -2.0225  -1.1088  -1.1088
    -0.3453  -0.3453   0.0872   0.0872   0.2156   0.2156   0.2467   0.2467
     0.3959   0.3959   0.7663   0.7663   0.8988   0.8988   1.5726   1.5726
     1.7656   1.7656   2.0685   2.0685   5.5583   5.5583   5.9205   5.9205
     6.7376   6.7376   6.9317   6.9317   7.0034   7.0034   7.2332   7.2332
     7.5135   7.5135

          k = 0.0000-0.5000-0.3104 ( 44744 PWs)   bands (ev):

   -26.6679 -26.6679 -26.6617 -26.6617 -26.6376 -26.6376 -26.6271 -26.6271
   -26.6271 -26.6271 -10.4959 -10.4959 -10.4519 -10.4519 -10.3411 -10.3411
   -10.2724 -10.2724 -10.2640 -10.2640 -10.2566 -10.2566 -10.2105 -10.2105
   -10.2021 -10.2021 -10.1876 -10.1876 -10.1653 -10.1653 -10.1285 -10.1285
   -10.0642 -10.0642 -10.0617 -10.0617 -10.0287 -10.0287 -10.0232 -10.0232
    -3.9677  -3.9677  -3.2406  -3.2406  -2.0223  -2.0223  -1.1090  -1.1090
    -0.3305  -0.3305   0.0823   0.0823   0.2037   0.2037   0.2421   0.2421
     0.3983   0.3983   0.7818   0.7818   0.8990   0.8990   1.5359   1.5359
     1.7667   1.7667   2.0961   2.0961   5.6142   5.6142   5.8463   5.8463
     6.7589   6.7589   6.9808   6.9808   7.0516   7.0516   7.0540   7.0540
     7.6512   7.6513

          k = 0.1667 0.1667 0.0000 ( 44693 PWs)   bands (ev):

   -26.6821 -26.6753 -26.6496 -26.6436 -26.6435 -26.6431 -26.6373 -26.6370
   -26.6154 -26.6154 -10.5288 -10.4681 -10.4601 -10.4598 -10.4042 -10.4037
   -10.3893 -10.3746 -10.3042 -10.2721 -10.2643 -10.2465 -10.2345 -10.1679
   -10.1594 -10.1569 -10.1419 -10.1075 -10.0935 -10.0910 -10.0854 -10.0787
   -10.0740 -10.0648 -10.0571 -10.0448 -10.0437 -10.0400 -10.0396 -10.0266
    -4.2727  -4.0319  -2.8749  -2.8619  -2.1445  -2.0921  -0.8899  -0.8363
    -0.7751  -0.5319  -0.5174   0.1341   0.1508   0.2553   0.2625   0.3064
     0.3226   0.3801   0.5244   0.6316   1.1820   1.4815   1.5815   1.6106
     1.6518   1.9151   1.9889   2.1101   5.1387   5.5212   5.9937   6.2417
     6.5311   6.7782   6.8561   6.8706   6.9091   6.9243   7.0277   7.1339
     7.6022   7.6793

          k = 0.1667 0.1667 0.1035 ( 44697 PWs)   bands (ev):

   -26.6817 -26.6758 -26.6490 -26.6436 -26.6435 -26.6434 -26.6373 -26.6370
   -26.6154 -26.6154 -10.5254 -10.4674 -10.4673 -10.4594 -10.4029 -10.4022
   -10.3890 -10.3767 -10.3044 -10.2873 -10.2444 -10.2404 -10.2320 -10.1839
   -10.1785 -10.1331 -10.1318 -10.1147 -10.0965 -10.0927 -10.0853 -10.0794
   -10.0733 -10.0634 -10.0541 -10.0463 -10.0435 -10.0410 -10.0384 -10.0286
    -4.2577  -4.0494  -2.8738  -2.8625  -2.1420  -2.0973  -0.8873  -0.8411
    -0.7272  -0.5335  -0.5172   0.0352   0.1624   0.2428   0.2516   0.3184
     0.3552   0.4005   0.4987   0.6204   1.2215   1.5323   1.5830   1.5965
     1.7042   1.8420   1.9984   2.0828   5.1520   5.4905   6.0199   6.2469
     6.5614   6.7591   6.8349   6.8945   6.9601   6.9620   7.0339   7.1234
     7.5501   7.5722

          k = 0.1667 0.1667 0.2070 ( 44680 PWs)   bands (ev):

   -26.6806 -26.6773 -26.6476 -26.6445 -26.6436 -26.6435 -26.6373 -26.6371
   -26.6154 -26.6154 -10.5153 -10.4824 -10.4655 -10.4609 -10.3985 -10.3984
   -10.3896 -10.3822 -10.3045 -10.2980 -10.2367 -10.2247 -10.2095 -10.2063
   -10.1935 -10.1379 -10.1210 -10.1087 -10.1033 -10.0913 -10.0853 -10.0817
   -10.0706 -10.0608 -10.0510 -10.0503 -10.0435 -10.0424 -10.0368 -10.0324
    -4.2162  -4.0961  -2.8710  -2.8645  -2.1347  -2.1097  -0.8795  -0.8530
    -0.6062  -0.5374  -0.5046  -0.1611   0.1921   0.2223   0.2497   0.3415
     0.3509   0.4418   0.4630   0.5855   1.3420   1.5609   1.5616   1.6916
     1.7108   1.8008   1.9598   2.0089   5.1999   5.4013   6.0982   6.2399
     6.6592   6.7560   6.8118   6.9246   6.9722   7.0489   7.0632   7.1368
     7.3383   7.4348

          k = 0.1667 0.1667-0.3104 ( 44662 PWs)   bands (ev):

   -26.6790 -26.6790 -26.6460 -26.6460 -26.6436 -26.6436 -26.6372 -26.6372
   -26.6154 -26.6154 -10.5001 -10.5001 -10.4631 -10.4631 -10.3949 -10.3949
   -10.3890 -10.3890 -10.3030 -10.3030 -10.2242 -10.2242 -10.2132 -10.2132
   -10.1699 -10.1699 -10.1114 -10.1114 -10.0936 -10.0936 -10.0848 -10.0848
   -10.0647 -10.0647 -10.0513 -10.0513 -10.0434 -10.0434 -10.0350 -10.0350
    -4.1574  -4.1574  -2.8675  -2.8675  -2.1234  -2.1234  -0.8673  -0.8673
    -0.5450  -0.5450  -0.3723  -0.3723   0.2118   0.2118   0.2834   0.2834
     0.3955   0.3955   0.5288   0.5288   1.5047   1.5047   1.5699   1.5699
     1.8505   1.8505   1.9111   1.9111   5.2892   5.2893   6.1883   6.1883
     6.7806   6.7806   6.8323   6.8323   6.9794   6.9794   7.1540   7.1540
     7.3240   7.3243

          k = 0.1667 0.3333 0.0000 ( 44704 PWs)   bands (ev):

   -26.6753 -26.6686 -26.6561 -26.6501 -26.6411 -26.6374 -26.6374 -26.6342
   -26.6213 -26.6211 -10.4973 -10.4578 -10.4361 -10.4308 -10.3899 -10.3754
   -10.3403 -10.3119 -10.2805 -10.2764 -10.2741 -10.2527 -10.2153 -10.1964
   -10.1655 -10.1593 -10.1488 -10.1391 -10.1327 -10.1166 -10.1165 -10.1015
   -10.0926 -10.0837 -10.0728 -10.0665 -10.0563 -10.0454 -10.0422 -10.0330
    -4.0994  -3.9239  -3.0805  -3.0312  -2.3487  -2.3100  -0.7535  -0.7358
    -0.6005  -0.1173  -0.0516   0.0381   0.0703   0.2086   0.2422   0.2675
     0.3080   0.4042   0.4420   0.5640   1.1720   1.3409   1.5606   1.5732
     1.7702   1.8233   1.8946   2.0984   5.2392   5.6299   5.8380   6.3583
     6.4676   6.5072   6.6337   6.8699   7.0336   7.1516   7.2583   7.3297
     7.4072   7.5893

          k = 0.1667 0.3333 0.1035 ( 44673 PWs)   bands (ev):

   -26.6749 -26.6692 -26.6555 -26.6504 -26.6410 -26.6384 -26.6365 -26.6343
   -26.6213 -26.6211 -10.4960 -10.4623 -10.4372 -10.4267 -10.3909 -10.3757
   -10.3383 -10.3137 -10.2831 -10.2815 -10.2616 -10.2475 -10.2145 -10.1976
   -10.1747 -10.1604 -10.1548 -10.1389 -10.1314 -10.1168 -10.1152 -10.1016
   -10.0956 -10.0767 -10.0717 -10.0647 -10.0553 -10.0455 -10.0425 -10.0350
    -4.0879  -3.9358  -3.0781  -3.0352  -2.3467  -2.3134  -0.7533  -0.7390
    -0.5621  -0.1217  -0.0862   0.0342   0.0922   0.1710   0.2486   0.2743
     0.3042   0.4148   0.4362   0.5699   1.1901   1.3385   1.5022   1.6499
     1.6944   1.8585   1.9152   2.0901   5.2639   5.6141   5.8563   6.3036
     6.4894   6.5022   6.6680   6.8643   7.0670   7.1918   7.2508   7.2776
     7.3981   7.5463

          k = 0.1667 0.3333 0.2070 ( 44675 PWs)   bands (ev):

   -26.6739 -26.6707 -26.6541 -26.6512 -26.6407 -26.6393 -26.6357 -26.6346
   -26.6213 -26.6211 -10.4917 -10.4725 -10.4367 -10.4210 -10.3925 -10.3770
   -10.3327 -10.3182 -10.2870 -10.2848 -10.2416 -10.2335 -10.2129 -10.2042
   -10.1898 -10.1687 -10.1584 -10.1502 -10.1276 -10.1173 -10.1122 -10.1066
   -10.0848 -10.0730 -10.0699 -10.0609 -10.0529 -10.0464 -10.0434 -10.0391
    -4.0562  -3.9683  -3.0707  -3.0457  -2.3409  -2.3220  -0.7522  -0.7446
    -0.4614  -0.2027  -0.0866   0.0130   0.1230   0.1333   0.2252   0.2866
     0.3149   0.3707   0.4860   0.5709   1.2458   1.3340   1.4609   1.5729
     1.7413   1.8761   1.9548   2.0657   5.3353   5.5512   5.9139   6.1718
     6.5309   6.5818   6.6991   6.8657   7.0938   7.1693   7.1830   7.3254
     7.3834   7.4382

          k = 0.1667 0.3333-0.3104 ( 44658 PWs)   bands (ev):

   -26.6725 -26.6725 -26.6525 -26.6524 -26.6403 -26.6399 -26.6352 -26.6349
   -26.6212 -26.6212 -10.4860 -10.4810 -10.4362 -10.4184 -10.3932 -10.3779
   -10.3260 -10.3243 -10.2877 -10.2870 -10.2241 -10.2232 -10.2150 -10.2136
   -10.1887 -10.1874 -10.1592 -10.1521 -10.1255 -10.1180 -10.1113 -10.1090
   -10.0773 -10.0713 -10.0688 -10.0618 -10.0503 -10.0491 -10.0421 -10.0419
    -4.0125  -4.0125  -3.0591  -3.0590  -2.3323  -2.3319  -0.7505  -0.7482
    -0.3371  -0.3217  -0.0743  -0.0041   0.1163   0.1362   0.2183   0.2848
     0.3330   0.3412   0.5142   0.5636   1.3045   1.3181   1.4579   1.4920
     1.8211   1.8267   2.0153   2.0225   5.4257   5.4607   5.9821   6.0716
     6.5581   6.6266   6.7807   6.8328   7.0556   7.0700   7.2132   7.3386
     7.3868   7.4108

          k = 0.1667-0.5000 0.0000 ( 44690 PWs)   bands (ev):

   -26.6658 -26.6658 -26.6594 -26.6594 -26.6384 -26.6384 -26.6294 -26.6294
   -26.6284 -26.6284 -10.4629 -10.4629 -10.4428 -10.4428 -10.3288 -10.3288
   -10.2972 -10.2972 -10.2606 -10.2606 -10.2373 -10.2373 -10.2366 -10.2366
   -10.2096 -10.2096 -10.1759 -10.1759 -10.1373 -10.1373 -10.1095 -10.1095
   -10.1022 -10.1022 -10.0697 -10.0697 -10.0510 -10.0510 -10.0386 -10.0386
    -3.9122  -3.9122  -3.2051  -3.2051  -2.3635  -2.3635  -0.7226  -0.7226
    -0.3427  -0.3427  -0.0533  -0.0533   0.2398   0.2398   0.3606   0.3606
     0.3606   0.3606   0.7543   0.7543   0.8898   0.8898   1.6412   1.6412
     1.7128   1.7128   2.0172   2.0172   5.4125   5.4125   5.9541   5.9541
     6.6780   6.6780   6.8808   6.8808   6.9805   6.9805   7.3359   7.3359
     7.6134   7.6134

          k = 0.1667-0.5000 0.1035 ( 44682 PWs)   bands (ev):

   -26.6658 -26.6658 -26.6594 -26.6594 -26.6384 -26.6384 -26.6294 -26.6294
   -26.6284 -26.6284 -10.4674 -10.4674 -10.4381 -10.4381 -10.3298 -10.3298
   -10.2936 -10.2936 -10.2605 -10.2605 -10.2423 -10.2423 -10.2311 -10.2311
   -10.2090 -10.2090 -10.1754 -10.1754 -10.1487 -10.1487 -10.1153 -10.1153
   -10.0892 -10.0892 -10.0690 -10.0690 -10.0510 -10.0510 -10.0395 -10.0395
    -3.9103  -3.9103  -3.2082  -3.2082  -2.3637  -2.3637  -0.7235  -0.7235
    -0.3345  -0.3345  -0.0391  -0.0391   0.2224   0.2224   0.3185   0.3185
     0.3947   0.3947   0.7676   0.7676   0.8903   0.8903   1.5678   1.5678
     1.7661   1.7661   2.0293   2.0293   5.4374   5.4374   5.9455   5.9455
     6.6471   6.6471   6.8446   6.8446   7.0160   7.0161   7.3728   7.3729
     7.5274   7.5275

          k = 0.1667-0.5000 0.2070 ( 44690 PWs)   bands (ev):

   -26.6658 -26.6658 -26.6594 -26.6594 -26.6384 -26.6384 -26.6294 -26.6294
   -26.6284 -26.6284 -10.4736 -10.4736 -10.4314 -10.4314 -10.3315 -10.3315
   -10.2857 -10.2857 -10.2606 -10.2606 -10.2466 -10.2466 -10.2256 -10.2256
   -10.2061 -10.2061 -10.1773 -10.1773 -10.1662 -10.1662 -10.1197 -10.1197
   -10.0758 -10.0758 -10.0668 -10.0668 -10.0509 -10.0509 -10.0421 -10.0421
    -3.9066  -3.9066  -3.2143  -3.2143  -2.3641  -2.3641  -0.7250  -0.7250
    -0.3194  -0.3194   0.0063   0.0063   0.1629   0.1629   0.2931   0.2931
     0.4142   0.4142   0.7943   0.7943   0.8911   0.8911   1.4843   1.4843
     1.8066   1.8066   2.0549   2.0549   5.5000   5.5000   5.9031   5.9031
     6.6319   6.6320   6.7750   6.7750   7.0759   7.0759   7.3010   7.3010
     7.5583   7.5585

          k = 0.1667-0.5000-0.3104 ( 44692 PWs)   bands (ev):

   -26.6657 -26.6657 -26.6594 -26.6594 -26.6384 -26.6384 -26.6294 -26.6294
   -26.6284 -26.6284 -10.4760 -10.4760 -10.4288 -10.4288 -10.3322 -10.3322
   -10.2812 -10.2812 -10.2610 -10.2610 -10.2484 -10.2484 -10.2233 -10.2233
   -10.2008 -10.2008 -10.1866 -10.1866 -10.1694 -10.1694 -10.1215 -10.1215
   -10.0718 -10.0718 -10.0640 -10.0640 -10.0508 -10.0508 -10.0442 -10.0442
    -3.9046  -3.9046  -3.2174  -3.2174  -2.3642  -2.3642  -0.7257  -0.7257
    -0.3127  -0.3127   0.0737   0.0737   0.0867   0.0867   0.2866   0.2866
     0.4205   0.4205   0.8079   0.8079   0.8914   0.8914   1.4506   1.4506
     1.8178   1.8178   2.0682   2.0682   5.5431   5.5431   5.8634   5.8634
     6.6600   6.6600   6.7241   6.7241   7.1344   7.1345   7.1986   7.1986
     7.6753   7.6760

          k = 0.3333 0.3333 0.0000 ( 44646 PWs)   bands (ev):

   -26.6688 -26.6620 -26.6542 -26.6448 -26.6447 -26.6434 -26.6386 -26.6330
   -26.6274 -26.6259 -10.4550 -10.4149 -10.4014 -10.3962 -10.3483 -10.3409
   -10.3352 -10.3107 -10.2810 -10.2708 -10.2624 -10.2424 -10.2104 -10.1782
   -10.1729 -10.1672 -10.1661 -10.1592 -10.1583 -10.1496 -10.1392 -10.1091
   -10.1078 -10.1037 -10.1029 -10.0942 -10.0860 -10.0776 -10.0500 -10.0396
    -3.9233  -3.7857  -3.1120  -3.0157  -2.7629  -2.7188  -0.4471  -0.4128
    -0.3836  -0.0100  -0.0067   0.0499   0.0568   0.2286   0.2356   0.2893
     0.3166   0.3746   0.4719   0.5746   1.1892   1.2936   1.3198   1.5524
     1.5929   1.7567   2.0104   2.1427   5.2129   5.4766   5.6891   6.0335
     6.4463   6.5846   6.6418   6.7491   7.1218   7.2966   7.3804   7.4675
     7.6142   7.6152

          k = 0.3333 0.3333 0.1035 ( 44690 PWs)   bands (ev):

   -26.6685 -26.6628 -26.6532 -26.6448 -26.6447 -26.6443 -26.6379 -26.6333
   -26.6273 -26.6260 -10.4541 -10.4221 -10.3999 -10.3932 -10.3460 -10.3377
   -10.3345 -10.3131 -10.2767 -10.2710 -10.2635 -10.2406 -10.2115 -10.1900
   -10.1780 -10.1728 -10.1674 -10.1633 -10.1495 -10.1447 -10.1349 -10.1083
   -10.1056 -10.1035 -10.1025 -10.0897 -10.0861 -10.0769 -10.0510 -10.0433
    -3.9141  -3.7949  -3.1058  -3.0224  -2.7609  -2.7230  -0.4679  -0.3969
    -0.3577  -0.0153  -0.0122   0.0205   0.1104   0.2318   0.2351   0.2603
     0.3153   0.3564   0.4919   0.5728   1.1997   1.2761   1.3121   1.5011
     1.6335   1.7776   2.0172   2.1316   5.2449   5.4873   5.7208   6.0688
     6.3674   6.5245   6.6375   6.7276   7.1484   7.3575   7.3767   7.4216
     7.5154   7.5830

          k = 0.3333 0.3333 0.2070 ( 44687 PWs)   bands (ev):

   -26.6676 -26.6645 -26.6511 -26.6463 -26.6448 -26.6447 -26.6365 -26.6341
   -26.6269 -26.6262 -10.4508 -10.4341 -10.3965 -10.3914 -10.3397 -10.3332
   -10.3323 -10.3195 -10.2708 -10.2661 -10.2632 -10.2351 -10.2208 -10.2113
   -10.1787 -10.1782 -10.1675 -10.1661 -10.1493 -10.1480 -10.1158 -10.1091
   -10.1072 -10.1050 -10.0931 -10.0861 -10.0826 -10.0709 -10.0559 -10.0529
    -3.8890  -3.8200  -3.0886  -3.0405  -2.7549  -2.7333  -0.4735  -0.4277
    -0.2598  -0.0766   0.0028   0.0677   0.1089   0.1966   0.2380   0.2479
     0.3129   0.3280   0.5258   0.5661   1.2337   1.2612   1.2921   1.4000
     1.7106   1.7943   2.0371   2.1030   5.3296   5.4879   5.8167   6.1622
     6.1779   6.4115   6.6364   6.6884   7.1525   7.2831   7.3671   7.4630
     7.5504   7.5792

          k = 0.3333 0.3333-0.3104 ( 44716 PWs)   bands (ev):

   -26.6662 -26.6662 -26.6487 -26.6487 -26.6447 -26.6447 -26.6352 -26.6352
   -26.6265 -26.6265 -10.4442 -10.4442 -10.3929 -10.3929 -10.3334 -10.3334
   -10.3275 -10.3275 -10.2690 -10.2690 -10.2423 -10.2423 -10.2254 -10.2254
   -10.1796 -10.1796 -10.1671 -10.1671 -10.1490 -10.1490 -10.1093 -10.1093
   -10.1075 -10.1075 -10.0866 -10.0866 -10.0709 -10.0709 -10.0610 -10.0610
    -3.8545  -3.8545  -3.0647  -3.0647  -2.7452  -2.7452  -0.4578  -0.4578
    -0.1566  -0.1566   0.0497   0.0497   0.1289   0.1289   0.2509   0.2509
     0.3151   0.3151   0.5515   0.5515   1.2685   1.2685   1.3036   1.3036
     1.7719   1.7719   2.0678   2.0678   5.4293   5.4293   5.9761   5.9761
     6.2854   6.2854   6.6532   6.6532   7.2068   7.2068   7.3675   7.3676
     7.6192   7.6193

          k = 0.3333-0.5000 0.0000 ( 44690 PWs)   bands (ev):

   -26.6603 -26.6603 -26.6531 -26.6531 -26.6417 -26.6417 -26.6357 -26.6357
   -26.6306 -26.6306 -10.4203 -10.4203 -10.3814 -10.3814 -10.3089 -10.3089
   -10.3014 -10.3014 -10.2592 -10.2592 -10.2379 -10.2379 -10.2162 -10.2162
   -10.2148 -10.2148 -10.1801 -10.1801 -10.1574 -10.1574 -10.1354 -10.1354
   -10.1198 -10.1198 -10.1134 -10.1134 -10.0818 -10.0818 -10.0437 -10.0437
    -3.7316  -3.7316  -3.1663  -3.1663  -2.8484  -2.8484  -0.4121  -0.4121
    -0.2267  -0.2267   0.1007   0.1007   0.1354   0.1354   0.3184   0.3184
     0.4809   0.4809   0.7792   0.7792   0.8730   0.8730   1.3937   1.3937
     1.6616   1.6616   2.1169   2.1169   5.2556   5.2556   5.7591   5.7591
     6.4673   6.4673   7.0178   7.0178   7.0567   7.0567   7.4600   7.4601
     7.5277   7.5278

          k = 0.3333-0.5000 0.1035 ( 44710 PWs)   bands (ev):

   -26.6603 -26.6603 -26.6531 -26.6531 -26.6417 -26.6417 -26.6357 -26.6357
   -26.6306 -26.6306 -10.4228 -10.4228 -10.3777 -10.3777 -10.3071 -10.3071
   -10.3011 -10.3011 -10.2600 -10.2600 -10.2390 -10.2390 -10.2228 -10.2228
   -10.2097 -10.2097 -10.1804 -10.1804 -10.1677 -10.1677 -10.1261 -10.1261
   -10.1196 -10.1196 -10.1088 -10.1088 -10.0821 -10.0821 -10.0467 -10.0467
    -3.7301  -3.7301  -3.1669  -3.1669  -2.8502  -2.8502  -0.4325  -0.4325
    -0.1870  -0.1870   0.0927   0.0927   0.1517   0.1517   0.2878   0.2878
     0.4843   0.4843   0.7885   0.7885   0.8724   0.8724   1.3616   1.3616
     1.6837   1.6837   2.1154   2.1154   5.2872   5.2872   5.7944   5.7944
     6.4155   6.4155   6.8219   6.8219   7.1793   7.1793   7.4669   7.4669
     7.5693   7.5694

          k = 0.3333-0.5000 0.2070 ( 44702 PWs)   bands (ev):

   -26.6603 -26.6603 -26.6531 -26.6531 -26.6417 -26.6417 -26.6357 -26.6357
   -26.6306 -26.6306 -10.4267 -10.4267 -10.3713 -10.3713 -10.3052 -10.3052
   -10.2969 -10.2969 -10.2636 -10.2636 -10.2417 -10.2417 -10.2295 -10.2295
   -10.2047 -10.2047 -10.1883 -10.1883 -10.1708 -10.1708 -10.1242 -10.1242
   -10.1181 -10.1181 -10.0936 -10.0936 -10.0812 -10.0812 -10.0556 -10.0556
    -3.7273  -3.7273  -3.1683  -3.1683  -2.8539  -2.8539  -0.4626  -0.4626
    -0.1039  -0.1039   0.0846   0.0846   0.1594   0.1594   0.2334   0.2334
     0.4888   0.4888   0.8062   0.8062   0.8711   0.8711   1.3060   1.3060
     1.7183   1.7183   2.1125   2.1125   5.3593   5.3593   5.8801   5.8801
     6.2885   6.2885   6.6373   6.6373   7.2671   7.2671   7.4562   7.4563
     7.6171   7.6174

          k = 0.3333-0.5000-0.3104 ( 44716 PWs)   bands (ev):

   -26.6603 -26.6603 -26.6531 -26.6531 -26.6417 -26.6417 -26.6357 -26.6357
   -26.6306 -26.6306 -10.4284 -10.4284 -10.3684 -10.3684 -10.3053 -10.3053
   -10.2917 -10.2917 -10.2680 -10.2680 -10.2433 -10.2433 -10.2320 -10.2320
   -10.2007 -10.2007 -10.1949 -10.1949 -10.1697 -10.1697 -10.1248 -10.1248
   -10.1176 -10.1176 -10.0878 -10.0878 -10.0710 -10.0710 -10.0680 -10.0680
    -3.7258  -3.7258  -3.1690  -3.1690  -2.8557  -2.8557  -0.4748  -0.4748
    -0.0472  -0.0472   0.0796   0.0796   0.1287   0.1287   0.2249   0.2249
     0.4905   0.4905   0.8149   0.8149   0.8706   0.8706   1.2805   1.2805
     1.7326   1.7326   2.1110   2.1110   5.4019   5.4019   5.9400   5.9400
     6.2036   6.2036   6.5651   6.5651   7.3466   7.3466   7.3855   7.3855
     7.6742   7.6742

          k =-0.5000-0.5000 0.0000 ( 44700 PWs)   bands (ev):

   -26.6559 -26.6559 -26.6454 -26.6454 -26.6453 -26.6453 -26.6436 -26.6436
   -26.6315 -26.6315 -10.3971 -10.3971 -10.3228 -10.3228 -10.3142 -10.3142
   -10.2808 -10.2808 -10.2612 -10.2612 -10.2421 -10.2421 -10.2333 -10.2333
   -10.2052 -10.2052 -10.1712 -10.1712 -10.1646 -10.1646 -10.1591 -10.1591
   -10.1562 -10.1562 -10.1460 -10.1460 -10.0815 -10.0815 -10.0424 -10.0424
    -3.5519  -3.5519  -3.2097  -3.2097  -3.0729  -3.0729  -0.4575  -0.4575
    -0.1141  -0.1141   0.0233   0.0233   0.3027   0.3027   0.5295   0.5295
     0.5557   0.5557   0.7222   0.7222   0.8370   0.8370   1.1556   1.1556
     1.6438   1.6438   2.1590   2.1590   5.1567   5.1567   5.6588   5.6588
     6.4192   6.4192   7.1675   7.1675   7.2147   7.2147   7.2900   7.2901
     7.5854   7.5854

          k =-0.5000-0.5000 0.1035 ( 44740 PWs)   bands (ev):

   -26.6559 -26.6559 -26.6454 -26.6454 -26.6453 -26.6453 -26.6436 -26.6436
   -26.6315 -26.6315 -10.3972 -10.3972 -10.3193 -10.3193 -10.3138 -10.3138
   -10.2820 -10.2820 -10.2609 -10.2609 -10.2430 -10.2430 -10.2374 -10.2374
   -10.2046 -10.2046 -10.1789 -10.1789 -10.1698 -10.1698 -10.1591 -10.1591
   -10.1563 -10.1563 -10.1267 -10.1267 -10.0821 -10.0821 -10.0464 -10.0464
    -3.5516  -3.5516  -3.2011  -3.2011  -3.0827  -3.0827  -0.4720  -0.4720
    -0.0888  -0.0888   0.0462   0.0462   0.2697   0.2697   0.5320   0.5320
     0.5552   0.5552   0.7341   0.7341   0.8313   0.8313   1.1409   1.1409
     1.6457   1.6457   2.1581   2.1581   5.1931   5.1931   5.7083   5.7083
     6.3651   6.3651   6.8317   6.8317   7.3120   7.3120   7.5595   7.5596
     7.5752   7.5752

          k =-0.5000-0.5000 0.2070 ( 44728 PWs)   bands (ev):

   -26.6559 -26.6559 -26.6453 -26.6453 -26.6453 -26.6453 -26.6436 -26.6436
   -26.6314 -26.6314 -10.3974 -10.3974 -10.3131 -10.3131 -10.3096 -10.3096
   -10.2869 -10.2869 -10.2596 -10.2596 -10.2474 -10.2474 -10.2448 -10.2448
   -10.2025 -10.2025 -10.1918 -10.1918 -10.1669 -10.1669 -10.1592 -10.1592
   -10.1567 -10.1567 -10.1004 -10.1004 -10.0833 -10.0833 -10.0581 -10.0581
    -3.5511  -3.5511  -3.1772  -3.1772  -3.1090  -3.1090  -0.4980  -0.4980
    -0.0188  -0.0188   0.0897   0.0897   0.1858   0.1858   0.5369   0.5369
     0.5550   0.5550   0.7610   0.7610   0.8150   0.8150   1.1103   1.1103
     1.6492   1.6492   2.1563   2.1563   5.2759   5.2759   5.8439   5.8439
     6.2215   6.2215   6.5477   6.5477   7.3745   7.3746   7.5355   7.5355
     7.7196   7.7197

          k =-0.5000-0.5000-0.3104 ( 44640 PWs)   bands (ev):

   -26.6559 -26.6559 -26.6453 -26.6453 -26.6453 -26.6453 -26.6436 -26.6436
   -26.6314 -26.6314 -10.3976 -10.3976 -10.3127 -10.3127 -10.2970 -10.2970
   -10.2970 -10.2970 -10.2558 -10.2558 -10.2558 -10.2558 -10.2456 -10.2456
   -10.1987 -10.1987 -10.1987 -10.1987 -10.1653 -10.1653 -10.1594 -10.1594
   -10.1569 -10.1569 -10.0839 -10.0839 -10.0766 -10.0766 -10.0766 -10.0766
    -3.5508  -3.5508  -3.1437  -3.1437  -3.1437  -3.1437  -0.5098  -0.5098
     0.0804   0.0804   0.0804   0.0804   0.1106   0.1106   0.5390   0.5390
     0.5557   0.5557   0.7904   0.7904   0.7904   0.7904   1.0944   1.0944
     1.6509   1.6509   2.1554   2.1554   5.3245   5.3245   6.0310   6.0310
     6.0310   6.0310   6.4311   6.4311   7.4608   7.4608   7.4609   7.4610
     7.8301   7.8301

     the Fermi energy is     4.0257 ev

!    total energy              =   -1400.16839250 Ry
     estimated scf accuracy    <          3.7E-09 Ry
     smearing contrib. (-TS)   =       0.00000000 Ry
     internal energy E=F+TS    =   -1400.16839250 Ry

     The total energy is F=E-TS. E is the sum of the following terms:
     one-electron contribution =    -233.81604833 Ry
     hartree contribution      =     158.40612899 Ry
     xc contribution           =    -147.70699276 Ry
     ewald contribution        =    -414.98410021 Ry
     one-center paw contrib.   =    -762.06738019 Ry

     convergence has been achieved in   9 iterations

     Forces acting on atoms (cartesian axes, Ry/au):

     atom    1 type  3   force =     0.00000000    0.00000000   -0.00000000
     atom    2 type  3   force =     0.00000000    0.00000000    0.00000000
     atom    3 type  3   force =     0.00275404    0.00275404    0.00000000
     atom    4 type  3   force =    -0.00275404    0.00275404   -0.00000000
     atom    5 type  3   force =    -0.00275404   -0.00275404    0.00000000
     atom    6 type  3   force =    -0.00275404    0.00275404   -0.00000000
     atom    7 type  3   force =    -0.00275404   -0.00275404    0.00000000
     atom    8 type  3   force =     0.00275404   -0.00275404   -0.00000000
     atom    9 type  3   force =     0.00275404   -0.00275404   -0.00000000
     atom   10 type  3   force =     0.00275404    0.00275404    0.00000000
     atom   11 type  1   force =     0.00000000    0.00000000   -0.00000000
     atom   12 type  1   force =     0.00000000    0.00000000    0.00000000
     atom   13 type  1   force =     0.00000000    0.00000000    0.00000000
     atom   14 type  1   force =     0.00000000    0.00000000    0.00000000
     atom   15 type  1   force =     0.00000000    0.00000000    0.00000000
     atom   16 type  1   force =     0.00000000    0.00000000   -0.00000000
     atom   17 type  2   force =    -0.00370406    0.02980203   -0.03786492
     atom   18 type  2   force =     0.00370406    0.02980203    0.03786492
     atom   19 type  2   force =    -0.02980203    0.00370406    0.03786492
     atom   20 type  2   force =     0.00370406    0.02980203   -0.03786492
     atom   21 type  2   force =    -0.02980203    0.00370406   -0.03786492
     atom   22 type  2   force =     0.00370406   -0.02980203   -0.03786492
     atom   23 type  2   force =     0.02980203    0.00370406   -0.03786492
     atom   24 type  2   force =     0.00370406   -0.02980203    0.03786492
     atom   25 type  2   force =     0.02980203    0.00370406    0.03786492
     atom   26 type  2   force =    -0.02980203   -0.00370406   -0.03786492
     atom   27 type  2   force =    -0.00370406    0.02980203    0.03786492
     atom   28 type  2   force =    -0.02980203   -0.00370406    0.03786492
     atom   29 type  2   force =    -0.00370406   -0.02980203    0.03786492
     atom   30 type  2   force =     0.02980203   -0.00370406    0.03786492
     atom   31 type  2   force =    -0.00370406   -0.02980203   -0.03786492
     atom   32 type  2   force =     0.02980203   -0.00370406   -0.03786492
     atom   33 type  2   force =     0.00000000    0.00000000   -0.03966793
     atom   34 type  2   force =     0.00000000    0.00000000    0.03966793
     atom   35 type  2   force =     0.00000000    0.00000000   -0.03966793
     atom   36 type  2   force =     0.00000000    0.00000000    0.03966793
     atom   37 type  2   force =     0.00553660   -0.01134192   -0.00000000
     atom   38 type  2   force =    -0.00553660   -0.01134192    0.00000000
     atom   39 type  2   force =     0.01134192   -0.00553660    0.00000000
     atom   40 type  2   force =    -0.00553660    0.01134192   -0.00000000
     atom   41 type  2   force =    -0.01134192   -0.00553660    0.00000000
     atom   42 type  2   force =     0.01134192    0.00553660    0.00000000
     atom   43 type  2   force =     0.00553660    0.01134192    0.00000000
     atom   44 type  2   force =    -0.01134192    0.00553660    0.00000000

     Total force =     0.212273     Total SCF correction =     0.000023


     Computing stress (Cartesian axis) and pressure

          total   stress  (Ry/bohr**3)                   (kbar)     P=      -23.22
  -0.00007750   0.00000000   0.00000000          -11.40        0.00        0.00
   0.00000000  -0.00007750   0.00000000            0.00      -11.40        0.00
   0.00000000   0.00000000  -0.00031860            0.00        0.00      -46.87


     BFGS Geometry Optimization
     Energy error            =      0.0E+00 Ry
     Gradient error          =      4.0E-02 Ry/Bohr

     number of scf cycles    =   1
     number of bfgs steps    =   0

     energy             new  =   -1400.1683924960 Ry

     new trust radius        =       0.0483283880 bohr
     new conv_thr            =       0.0000000100 Ry


ATOMIC_POSITIONS (crystal)
K             0.0000000000        0.0000000000        0.5000000000
K             0.5000000000        0.5000000000        0.0000000000
K             0.2875521304        0.7875521304        0.2500000000
K             0.2124478696        0.2875521304        0.2500000000
K             0.7124478696        0.2124478696        0.2500000000
K             0.2124478696        0.2875521304        0.7500000000
K             0.7124478696        0.2124478696        0.7500000000
K             0.7875521304        0.7124478696        0.2500000000
K             0.7875521304        0.7124478696        0.7500000000
K             0.2875521304        0.7875521304        0.7500000000
Al            0.0000000000        0.0000000000       -0.0000000000
Al            0.5000000000        0.5000000000        0.5000000000
Al            0.0000000000        0.5000000000        0.0000000000
Al            0.5000000000        0.0000000000        0.5000000000
Al            0.0000000000        0.5000000000        0.5000000000
Al            0.5000000000        0.0000000000       -0.0000000000
H             0.5435281442        0.8222372924        0.1157845587
H             0.9564718558        0.3222372924        0.3842154413
H             0.6777627076        0.9564718558        0.3842154413
H             0.9564718558        0.3222372924        0.6157845587
H             0.6777627076        0.9564718558        0.6157845587
H             0.4564718558        0.1777627076        0.1157845587
H             0.8222372924        0.4564718558        0.1157845587
H             0.4564718558        0.1777627076        0.8842154413
H             0.8222372924        0.4564718558        0.8842154413
H             0.1777627076        0.5435281442        0.1157845587
H             0.5435281442        0.8222372924        0.8842154413
H             0.1777627076        0.5435281442        0.8842154413
H             0.0435281442        0.6777627076        0.3842154413
H             0.3222372924        0.0435281442        0.3842154413
H             0.0435281442        0.6777627076        0.6157845587
H             0.3222372924        0.0435281442        0.6157845587
H             0.0000000000        0.0000000000        0.1686923985
H             0.5000000000        0.5000000000        0.3313076015
H             0.5000000000        0.5000000000        0.6686923985
H             0.0000000000        0.0000000000        0.8313076015
H             0.7527763539        0.0742875700       -0.0000000000
H             0.7472236461        0.5742875700        0.5000000000
H             0.4257124300        0.7472236461        0.5000000000
H             0.2472236461        0.9257124300       -0.0000000000
H             0.0742875700        0.2472236461        0.0000000000
H             0.9257124300        0.7527763539        0.0000000000
H             0.2527763539        0.4257124300        0.5000000000
H             0.5742875700        0.2527763539        0.5000000000



     Writing config-only to output data dir ./k5al3h14.save/
     NEW-OLD atomic charge density approx. for the potential

     Check: negative core charge=   -0.000001

     total cpu time spent up to now is       44.7 secs

     Self-consistent Calculation

     iteration #  1     ecut=    75.00 Ry     beta= 0.70
     Davidson diagonalization with overlap
     ethr =  1.00E-06,  avg # of iterations =  6.5

     total cpu time spent up to now is       50.1 secs

     total energy              =   -1400.20966165 Ry
     estimated scf accuracy    <       0.00472454 Ry

     iteration #  2     ecut=    75.00 Ry     beta= 0.70
     Davidson diagonalization with overlap
     ethr =  3.47E-06,  avg # of iterations =  5.7

     total cpu time spent up to now is       54.2 secs

     total energy              =   -1400.21084335 Ry
     estimated scf accuracy    <       0.00148067 Ry

     iteration #  3     ecut=    75.00 Ry     beta= 0.70
     Davidson diagonalization with overlap
     ethr =  1.09E-06,  avg # of iterations =  2.5

     total cpu time spent up to now is       57.4 secs

     total energy              =   -1400.21114826 Ry
     estimated scf accuracy    <       0.00001433 Ry

     iteration #  4     ecut=    75.00 Ry     beta= 0.70
     Davidson diagonalization with overlap
     ethr =  1.05E-08,  avg # of iterations =  4.0

     total cpu time spent up to now is       60.7 secs

     total energy              =   -1400.21115130 Ry
     estimated scf accuracy    <       0.00000259 Ry

     iteration #  5     ecut=    75.00 Ry     beta= 0.70
     Davidson diagonalization with overlap
     ethr =  1.91E-09,  avg # of iterations =  2.0

     total cpu time spent up to now is       63.5 secs

     total energy              =   -1400.21115180 Ry
     estimated scf accuracy    <       0.00000026 Ry

     iteration #  6     ecut=    75.00 Ry     beta= 0.70
     Davidson diagonalization with overlap
     ethr =  1.91E-10,  avg # of iterations =  2.5

     total cpu time spent up to now is       66.6 secs

     End of self-consistent calculation

          k = 0.0000 0.0000 0.0000 ( 44777 PWs)   bands (ev):

   -26.7281 -26.7224 -26.6855 -26.6855 -26.6854 -26.6854 -26.6759 -26.6701
   -26.6539 -26.6538 -10.5938 -10.5277 -10.5215 -10.5213 -10.4664 -10.4664
   -10.4372 -10.4372 -10.3554 -10.3034 -10.2898 -10.2765 -10.2765 -10.1896
   -10.1896 -10.1875 -10.1875 -10.1393 -10.1315 -10.1258 -10.1003 -10.1003
   -10.0793 -10.0793 -10.0695 -10.0691 -10.0652 -10.0631 -10.0583 -10.0583
    -4.3981  -4.1200  -2.8135  -2.7151  -1.6834  -1.4780  -1.1959  -1.1959
    -1.0487  -1.0487  -0.9072   0.1434   0.2218   0.2892   0.2915   0.2915
     0.4116   0.5773   0.6281   0.6281   1.1205   1.4495   1.4495   1.6969
     1.7029   2.0735   2.1025   2.1025   5.1151   5.4813   5.8397   6.0755
     6.7178   6.7178   6.8377   7.0150   7.1353   7.1353   7.3005   7.6999
     7.7243   7.8162

          k = 0.0000 0.0000 0.1035 ( 44641 PWs)   bands (ev):

   -26.7278 -26.7228 -26.6855 -26.6855 -26.6854 -26.6854 -26.6754 -26.6705
   -26.6539 -26.6538 -10.5896 -10.5272 -10.5270 -10.5217 -10.4644 -10.4644
   -10.4392 -10.4392 -10.3554 -10.3254 -10.2741 -10.2741 -10.2597 -10.2139
   -10.2139 -10.1622 -10.1622 -10.1388 -10.1328 -10.1321 -10.1017 -10.1017
   -10.0788 -10.0788 -10.0695 -10.0692 -10.0650 -10.0632 -10.0608 -10.0608
    -4.3812  -4.1407  -2.8072  -2.7220  -1.6732  -1.4994  -1.1864  -1.1864
    -1.0589  -1.0589  -0.8447   0.0399   0.2342   0.3063   0.3066   0.3066
     0.3985   0.5487   0.5912   0.5912   1.2303   1.5066   1.5066   1.6980
     1.7031   2.0282   2.0651   2.0651   5.1133   5.4357   5.8944   6.1399
     6.7495   6.7495   6.8430   6.9951   7.1203   7.1203   7.2521   7.3841
     7.7031   7.7032

          k = 0.0000 0.0000 0.2070 ( 44668 PWs)   bands (ev):

   -26.7268 -26.7240 -26.6855 -26.6855 -26.6854 -26.6854 -26.6743 -26.6715
   -26.6539 -26.6538 -10.5776 -10.5415 -10.5261 -10.5229 -10.4591 -10.4591
   -10.4445 -10.4445 -10.3547 -10.3429 -10.2666 -10.2666 -10.2362 -10.2362
   -10.2206 -10.1529 -10.1379 -10.1379 -10.1374 -10.1335 -10.1070 -10.1070
   -10.0770 -10.0770 -10.0694 -10.0692 -10.0669 -10.0669 -10.0645 -10.0635
    -4.3339  -4.1954  -2.7897  -2.7405  -1.6439  -1.5473  -1.1601  -1.1601
    -1.0865  -1.0865  -0.6791  -0.1911   0.2684   0.3510   0.3510   0.3534
     0.3632   0.4894   0.5086   0.5086   1.4586   1.6450   1.6450   1.7004
     1.7033   1.8976   1.9606   1.9606   5.1345   5.3248   6.0476   6.2567
     6.8370   6.8370   6.8617   6.9479   7.0617   7.0617   7.0796   7.1259
     7.7202   7.7204

          k = 0.0000 0.0000-0.3104 ( 44676 PWs)   bands (ev):

   -26.7254 -26.7254 -26.6854 -26.6854 -26.6854 -26.6854 -26.6728 -26.6728
   -26.6538 -26.6538 -10.5602 -10.5602 -10.5245 -10.5245 -10.4517 -10.4517
   -10.4517 -10.4517 -10.3516 -10.3516 -10.2539 -10.2539 -10.2539 -10.2539
   -10.1834 -10.1834 -10.1354 -10.1354 -10.1188 -10.1188 -10.1188 -10.1188
   -10.0731 -10.0731 -10.0731 -10.0731 -10.0693 -10.0693 -10.0639 -10.0639
    -4.2665  -4.2665  -2.7653  -2.7653  -1.5996  -1.5996  -1.1236  -1.1236
    -1.1236  -1.1236  -0.4487  -0.4487   0.3155   0.3155   0.4194   0.4194
     0.4213   0.4213   0.4213   0.4213   1.6979   1.6979   1.7025   1.7025
     1.8103   1.8103   1.8103   1.8103   5.2086   5.2086   6.2279   6.2279
     6.8978   6.8978   6.9551   6.9551   6.9551   6.9552   7.0012   7.0012
     7.7639   7.8483

          k = 0.0000 0.1667 0.0000 ( 44709 PWs)   bands (ev):

   -26.7256 -26.7200 -26.6894 -26.6879 -26.6834 -26.6833 -26.6744 -26.6703
   -26.6560 -26.6559 -10.5807 -10.5263 -10.5058 -10.4969 -10.4715 -10.4499
   -10.4380 -10.4089 -10.3473 -10.3040 -10.2967 -10.2810 -10.2695 -10.2040
   -10.1873 -10.1857 -10.1788 -10.1356 -10.1318 -10.1286 -10.1225 -10.1110
   -10.0996 -10.0871 -10.0862 -10.0784 -10.0781 -10.0647 -10.0634 -10.0595
    -4.3340  -4.0758  -2.8733  -2.8282  -1.9181  -1.8086  -1.1662  -1.0544
    -0.8441  -0.6612  -0.6449   0.1078   0.2283   0.2498   0.2719   0.2898
     0.3162   0.5096   0.5380   0.5522   1.1769   1.4944   1.5614   1.6547
     1.6832   2.0050   2.0635   2.0952   5.1829   5.5749   5.9248   6.1702
     6.7351   6.7412   6.8018   6.8150   7.0759   7.1071   7.2366   7.4154
     7.5744   7.6826

          k = 0.0000 0.1667 0.1035 ( 44698 PWs)   bands (ev):

   -26.7252 -26.7204 -26.6893 -26.6880 -26.6834 -26.6833 -26.6741 -26.6705
   -26.6560 -26.6559 -10.5771 -10.5285 -10.5061 -10.5003 -10.4696 -10.4508
   -10.4361 -10.4109 -10.3474 -10.3243 -10.2780 -10.2681 -10.2672 -10.2178
   -10.2098 -10.1723 -10.1575 -10.1375 -10.1366 -10.1304 -10.1223 -10.1102
   -10.1005 -10.0869 -10.0863 -10.0792 -10.0772 -10.0648 -10.0637 -10.0613
    -4.3182  -4.0947  -2.8702  -2.8312  -1.9123  -1.8186  -1.1587  -1.0618
    -0.7930  -0.6591  -0.6490   0.0183   0.2111   0.2780   0.2879   0.3058
     0.3068   0.4887   0.5247   0.5350   1.2471   1.5375   1.5857   1.6563
     1.7070   1.9414   2.0310   2.0881   5.1891   5.5341   5.9670   6.2053
     6.7344   6.7474   6.8378   6.8473   7.0682   7.1054   7.2158   7.3398
     7.5191   7.5339

          k = 0.0000 0.1667 0.2070 ( 44684 PWs)   bands (ev):

   -26.7243 -26.7215 -26.6889 -26.6882 -26.6834 -26.6833 -26.6733 -26.6713
   -26.6560 -26.6559 -10.5668 -10.5372 -10.5068 -10.5054 -10.4649 -10.4537
   -10.4310 -10.4164 -10.3473 -10.3384 -10.2690 -10.2611 -10.2357 -10.2344
   -10.2305 -10.1611 -10.1561 -10.1401 -10.1382 -10.1275 -10.1205 -10.1087
   -10.1014 -10.0875 -10.0864 -10.0827 -10.0751 -10.0665 -10.0643 -10.0642
    -4.2739  -4.1452  -2.8619  -2.8394  -1.8958  -1.8429  -1.1381  -1.0821
    -0.6904  -0.6587  -0.6135  -0.1869   0.2093   0.2587   0.3308   0.3374
     0.3604   0.4457   0.4603   0.4977   1.4137   1.6173   1.6193   1.6857
     1.7947   1.7973   1.9412   2.0324   5.2242   5.4270   6.0895   6.2599
     6.7462   6.7875   6.8907   6.9102   7.0432   7.0621   7.1933   7.2329
     7.2887   7.4412

          k = 0.0000 0.1667-0.3104 ( 44680 PWs)   bands (ev):

   -26.7229 -26.7229 -26.6885 -26.6885 -26.6833 -26.6833 -26.6723 -26.6723
   -26.6560 -26.6560 -10.5519 -10.5519 -10.5072 -10.5072 -10.4589 -10.4589
   -10.4238 -10.4238 -10.3451 -10.3451 -10.2542 -10.2542 -10.2505 -10.2505
   -10.1936 -10.1936 -10.1458 -10.1458 -10.1291 -10.1291 -10.1139 -10.1139
   -10.0940 -10.0940 -10.0856 -10.0856 -10.0713 -10.0713 -10.0645 -10.0645
    -4.2111  -4.2111  -2.8506  -2.8506  -1.8712  -1.8712  -1.1101  -1.1101
    -0.6695  -0.6695  -0.4195  -0.4195   0.2279   0.2279   0.3841   0.3841
     0.3958   0.3958   0.4328   0.4328   1.6083   1.6083   1.6328   1.6328
     1.8081   1.8081   1.9260   1.9260   5.3076   5.3076   6.2252   6.2252
     6.7918   6.7918   6.8999   6.8999   7.0658   7.0658   7.1361   7.1361
     7.3230   7.3231

          k = 0.0000 0.3333 0.0000 ( 44698 PWs)   bands (ev):

   -26.7185 -26.7132 -26.6981 -26.6947 -26.6776 -26.6775 -26.6725 -26.6706
   -26.6618 -26.6617 -10.5532 -10.5192 -10.4851 -10.4813 -10.4499 -10.4218
   -10.3728 -10.3377 -10.3223 -10.3210 -10.3022 -10.2928 -10.2482 -10.2400
   -10.2051 -10.2008 -10.1749 -10.1667 -10.1567 -10.1497 -10.1460 -10.1414
   -10.1365 -10.1079 -10.1017 -10.0986 -10.0748 -10.0667 -10.0652 -10.0624
    -4.1602  -3.9741  -3.1074  -3.0708  -2.0650  -1.9861  -1.1136  -1.0489
    -0.6651  -0.1004  -0.0815  -0.0266   0.2315   0.2398   0.2426   0.2519
     0.3055   0.3634   0.4348   0.4517   1.1676   1.3806   1.6164   1.6633
     1.7688   1.8772   1.9549   2.0576   5.3267   5.7750   5.9160   6.4389
     6.4610   6.5762   6.7300   7.0361   7.0597   7.1586   7.2794   7.3545
     7.5276   7.6597

          k = 0.0000 0.3333 0.1035 ( 44684 PWs)   bands (ev):

   -26.7182 -26.7137 -26.6978 -26.6949 -26.6776 -26.6775 -26.6724 -26.6707
   -26.6618 -26.6617 -10.5519 -10.5228 -10.4837 -10.4807 -10.4488 -10.4242
   -10.3709 -10.3409 -10.3275 -10.3242 -10.2869 -10.2862 -10.2475 -10.2403
   -10.2096 -10.2017 -10.1820 -10.1735 -10.1562 -10.1535 -10.1457 -10.1437
   -10.1290 -10.1063 -10.0987 -10.0968 -10.0743 -10.0671 -10.0651 -10.0630
    -4.1480  -3.9867  -3.1063  -3.0743  -2.0604  -1.9924  -1.1093  -1.0534
    -0.6245  -0.1401  -0.0841  -0.0149   0.1917   0.2053   0.2449   0.2763
     0.3261   0.3653   0.4280   0.4653   1.1979   1.3776   1.6056   1.6418
     1.8107   1.8431   1.9401   2.0835   5.3489   5.7523   5.9290   6.3489
     6.4734   6.6495   6.7575   7.0546   7.0778   7.1672   7.2419   7.3042
     7.4600   7.6820

          k = 0.0000 0.3333 0.2070 ( 44694 PWs)   bands (ev):

   -26.7174 -26.7148 -26.6970 -26.6954 -26.6776 -26.6775 -26.6721 -26.6711
   -26.6618 -26.6617 -10.5478 -10.5312 -10.4809 -10.4796 -10.4450 -10.4305
   -10.3655 -10.3486 -10.3316 -10.3278 -10.2721 -10.2569 -10.2457 -10.2414
   -10.2275 -10.2060 -10.1913 -10.1764 -10.1696 -10.1593 -10.1471 -10.1451
   -10.1099 -10.1034 -10.0992 -10.0930 -10.0729 -10.0684 -10.0649 -10.0640
    -4.1145  -4.0212  -3.1020  -3.0831  -2.0474  -2.0085  -1.0977  -1.0654
    -0.5144  -0.2302  -0.0855  -0.0341   0.1403   0.1706   0.2764   0.2923
     0.3537   0.3546   0.4257   0.4742   1.2721   1.3686   1.5562   1.6765
     1.7173   1.8663   1.9741   2.0953   5.4175   5.6609   5.9866   6.2133
     6.5462   6.7140   6.8475   7.0732   7.0935   7.1686   7.1942   7.2072
     7.3339   7.5729

          k = 0.0000 0.3333-0.3104 ( 44678 PWs)   bands (ev):

   -26.7161 -26.7161 -26.6961 -26.6961 -26.6776 -26.6776 -26.6716 -26.6716
   -26.6617 -26.6617 -10.5405 -10.5405 -10.4794 -10.4794 -10.4383 -10.4383
   -10.3575 -10.3575 -10.3310 -10.3310 -10.2514 -10.2514 -10.2434 -10.2434
   -10.2250 -10.2250 -10.1908 -10.1908 -10.1643 -10.1643 -10.1464 -10.1464
   -10.1008 -10.1008 -10.0971 -10.0971 -10.0707 -10.0707 -10.0647 -10.0647
    -4.0681  -4.0681  -3.0937  -3.0937  -2.0287  -2.0287  -1.0816  -1.0816
    -0.3669  -0.3669  -0.0715  -0.0715   0.1447   0.1447   0.2997   0.2997
     0.3474   0.3474   0.4546   0.4546   1.3412   1.3412   1.5787   1.5787
     1.7936   1.7936   2.0561   2.0561   5.5302   5.5302   6.0867   6.0867
     6.6659   6.6660   6.9876   6.9876   7.1256   7.1256   7.1414   7.1414
     7.4181   7.4181

          k = 0.0000-0.5000 0.0000 ( 44666 PWs)   bands (ev):

   -26.7086 -26.7086 -26.7040 -26.7040 -26.6714 -26.6714 -26.6696 -26.6696
   -26.6696 -26.6696 -10.5189 -10.5189 -10.5032 -10.5032 -10.3731 -10.3731
   -10.3244 -10.3244 -10.2995 -10.2995 -10.2853 -10.2853 -10.2761 -10.2761
   -10.2452 -10.2452 -10.2088 -10.2088 -10.1604 -10.1604 -10.1471 -10.1471
   -10.1291 -10.1291 -10.1007 -10.1007 -10.0705 -10.0705 -10.0650 -10.0650
    -3.9714  -3.9714  -3.2434  -3.2434  -2.0501  -2.0501  -1.0664  -1.0664
    -0.3998  -0.3998   0.0684   0.0684   0.2274   0.2274   0.2391   0.2391
     0.3629   0.3629   0.7398   0.7398   0.9120   0.9120   1.7483   1.7483
     1.7782   1.7782   1.9609   1.9609   5.5350   5.5350   6.1275   6.1275
     6.8084   6.8084   6.8322   6.8322   7.1320   7.1320   7.2637   7.2637
     7.6862   7.6865

          k = 0.0000-0.5000 0.1035 ( 44642 PWs)   bands (ev):

   -26.7086 -26.7086 -26.7040 -26.7040 -26.6714 -26.6714 -26.6696 -26.6696
   -26.6696 -26.6696 -10.5237 -10.5237 -10.4984 -10.4984 -10.3743 -10.3743
   -10.3212 -10.3212 -10.2992 -10.2992 -10.2879 -10.2879 -10.2704 -10.2704
   -10.2453 -10.2453 -10.2085 -10.2085 -10.1681 -10.1681 -10.1605 -10.1605
   -10.1144 -10.1144 -10.1001 -10.1001 -10.0706 -10.0706 -10.0649 -10.0649
    -3.9694  -3.9694  -3.2469  -3.2469  -2.0500  -2.0500  -1.0665  -1.0665
    -0.3873  -0.3873   0.0668   0.0668   0.2136   0.2136   0.2355   0.2355
     0.3652   0.3652   0.7526   0.7526   0.9125   0.9125   1.6866   1.6866
     1.7834   1.7834   2.0117   2.0117   5.5618   5.5618   6.0918   6.0918
     6.7441   6.7441   6.9004   6.9004   7.0935   7.0935   7.3547   7.3547
     7.4938   7.4938

          k = 0.0000-0.5000 0.2070 ( 44652 PWs)   bands (ev):

   -26.7085 -26.7085 -26.7040 -26.7040 -26.6714 -26.6714 -26.6696 -26.6696
   -26.6696 -26.6696 -10.5299 -10.5299 -10.4922 -10.4922 -10.3763 -10.3763
   -10.3150 -10.3150 -10.2987 -10.2987 -10.2911 -10.2911 -10.2568 -10.2568
   -10.2450 -10.2450 -10.2096 -10.2096 -10.1941 -10.1941 -10.1634 -10.1634
   -10.1009 -10.1009 -10.0989 -10.0989 -10.0707 -10.0707 -10.0647 -10.0647
    -3.9652  -3.9652  -3.2541  -3.2541  -2.0497  -2.0497  -1.0667  -1.0667
    -0.3607  -0.3607   0.0629   0.0629   0.1855   0.1855   0.2290   0.2290
     0.3696   0.3696   0.7785   0.7785   0.9133   0.9133   1.6028   1.6028
     1.7861   1.7861   2.0803   2.0803   5.6367   5.6367   5.9838   5.9838
     6.7449   6.7449   6.9707   6.9707   7.0501   7.0501   7.2643   7.2643
     7.5400   7.5400

          k = 0.0000-0.5000-0.3104 ( 44744 PWs)   bands (ev):

   -26.7085 -26.7085 -26.7041 -26.7041 -26.6714 -26.6714 -26.6697 -26.6697
   -26.6696 -26.6696 -10.5323 -10.5323 -10.4898 -10.4898 -10.3772 -10.3772
   -10.3120 -10.3120 -10.2986 -10.2986 -10.2925 -10.2925 -10.2477 -10.2477
   -10.2399 -10.2399 -10.2209 -10.2209 -10.2021 -10.2021 -10.1646 -10.1646
   -10.0987 -10.0987 -10.0958 -10.0958 -10.0707 -10.0707 -10.0646 -10.0646
    -3.9631  -3.9631  -3.2577  -3.2577  -2.0495  -2.0495  -1.0668  -1.0668
    -0.3464  -0.3464   0.0602   0.0602   0.1715   0.1715   0.2259   0.2259
     0.3717   0.3717   0.7919   0.7919   0.9135   0.9135   1.5679   1.5679
     1.7871   1.7871   2.1074   2.1074   5.7047   5.7047   5.8942   5.8942
     6.7735   6.7735   7.0244   7.0244   7.0730   7.0730   7.1015   7.1015
     7.6787   7.6787

          k = 0.1667 0.1667 0.0000 ( 44693 PWs)   bands (ev):

   -26.7230 -26.7175 -26.6885 -26.6861 -26.6860 -26.6855 -26.6729 -26.6705
   -26.6581 -26.6580 -10.5652 -10.5045 -10.4984 -10.4968 -10.4408 -10.4404
   -10.4270 -10.4131 -10.3396 -10.3053 -10.2994 -10.2801 -10.2677 -10.2002
   -10.1926 -10.1883 -10.1775 -10.1445 -10.1302 -10.1276 -10.1240 -10.1158
   -10.1157 -10.1062 -10.0938 -10.0849 -10.0846 -10.0819 -10.0797 -10.0644
    -4.2702  -4.0295  -2.9002  -2.8867  -2.1549  -2.1013  -0.8579  -0.8010
    -0.7832  -0.5167  -0.5150   0.1031   0.1350   0.2259   0.2343   0.2831
     0.2982   0.3549   0.4973   0.5954   1.2180   1.5080   1.6141   1.6475
     1.6731   1.9297   2.0004   2.1208   5.2304   5.6209   5.9917   6.2640
     6.5454   6.8245   6.8780   6.9059   6.9106   6.9487   7.1286   7.1658
     7.6324   7.6834

          k = 0.1667 0.1667 0.1035 ( 44697 PWs)   bands (ev):

   -26.7227 -26.7180 -26.6883 -26.6861 -26.6860 -26.6857 -26.6728 -26.6706
   -26.6581 -26.6580 -10.5618 -10.5053 -10.5038 -10.4963 -10.4396 -10.4390
   -10.4268 -10.4150 -10.3398 -10.3216 -10.2778 -10.2747 -10.2652 -10.2163
   -10.2113 -10.1687 -10.1641 -10.1513 -10.1334 -10.1296 -10.1236 -10.1167
   -10.1151 -10.1040 -10.0913 -10.0857 -10.0845 -10.0825 -10.0789 -10.0670
    -4.2552  -4.0470  -2.8991  -2.8874  -2.1523  -2.1065  -0.8551  -0.8061
    -0.7349  -0.5188  -0.5149   0.0097   0.1456   0.2169   0.2231   0.2951
     0.3254   0.3742   0.4735   0.5843   1.2564   1.5604   1.6191   1.6249
     1.7254   1.8582   2.0097   2.0939   5.2430   5.5887   6.0208   6.2689
     6.5735   6.7973   6.8608   6.9406   6.9636   6.9766   7.1302   7.1590
     7.5663   7.5806

          k = 0.1667 0.1667 0.2070 ( 44680 PWs)   bands (ev):

   -26.7218 -26.7191 -26.6876 -26.6862 -26.6860 -26.6860 -26.6723 -26.6711
   -26.6581 -26.6580 -10.5520 -10.5200 -10.5021 -10.4976 -10.4356 -10.4354
   -10.4273 -10.4202 -10.3398 -10.3328 -10.2700 -10.2577 -10.2429 -10.2390
   -10.2274 -10.1737 -10.1571 -10.1424 -10.1398 -10.1285 -10.1232 -10.1188
   -10.1119 -10.1001 -10.0887 -10.0884 -10.0847 -10.0837 -10.0775 -10.0726
    -4.2137  -4.0937  -2.8963  -2.8895  -2.1447  -2.1190  -0.8466  -0.8185
    -0.6087  -0.5241  -0.5073  -0.1812   0.1715   0.1976   0.2241   0.3117
     0.3277   0.4182   0.4348   0.5504   1.3722   1.5965   1.5993   1.7111
     1.7279   1.8184   1.9715   2.0212   5.2898   5.4950   6.1073   6.2603
     6.6669   6.7921   6.8404   6.9745   6.9856   7.0740   7.1242   7.1636
     7.3427   7.4654

          k = 0.1667 0.1667-0.3104 ( 44662 PWs)   bands (ev):

   -26.7205 -26.7205 -26.6868 -26.6868 -26.6860 -26.6860 -26.6717 -26.6717
   -26.6581 -26.6581 -10.5372 -10.5372 -10.4998 -10.4998 -10.4322 -10.4322
   -10.4265 -10.4265 -10.3381 -10.3381 -10.2571 -10.2571 -10.2457 -10.2457
   -10.2053 -10.2053 -10.1481 -10.1481 -10.1297 -10.1297 -10.1216 -10.1216
   -10.1042 -10.1042 -10.0889 -10.0889 -10.0848 -10.0848 -10.0761 -10.0761
    -4.1550  -4.1550  -2.8927  -2.8927  -2.1330  -2.1330  -0.8335  -0.8335
    -0.5332  -0.5332  -0.3894  -0.3894   0.1875   0.1875   0.2584   0.2584
     0.3726   0.3726   0.4961   0.4961   1.5314   1.5314   1.6048   1.6048
     1.8641   1.8641   1.9254   1.9254   5.3796   5.3796   6.2049   6.2049
     6.8162   6.8162   6.8365   6.8365   7.0321   7.0321   7.1685   7.1686
     7.3523   7.3523

          k = 0.1667 0.3333 0.0000 ( 44704 PWs)   bands (ev):

   -26.7161 -26.7109 -26.6961 -26.6925 -26.6815 -26.6799 -26.6714 -26.6709
   -26.6639 -26.6633 -10.5339 -10.4952 -10.4734 -10.4680 -10.4269 -10.4134
   -10.3765 -10.3500 -10.3166 -10.3128 -10.3070 -10.2865 -10.2492 -10.2295
   -10.2025 -10.1991 -10.1860 -10.1720 -10.1703 -10.1556 -10.1537 -10.1400
   -10.1297 -10.1168 -10.1095 -10.1031 -10.0979 -10.0872 -10.0821 -10.0700
    -4.0963  -3.9200  -3.0993  -3.0503  -2.3607  -2.3225  -0.7238  -0.7020
    -0.6112  -0.1322  -0.0730   0.0302   0.0684   0.1784   0.2355   0.2389
     0.2830   0.3861   0.4146   0.5340   1.2024   1.3654   1.5898   1.5964
     1.7887   1.8394   1.9103   2.1107   5.3206   5.7290   5.8617   6.4213
     6.4785   6.5279   6.6854   6.9590   7.0531   7.1543   7.3078   7.3626
     7.4143   7.6064

          k = 0.1667 0.3333 0.1035 ( 44673 PWs)   bands (ev):

   -26.7158 -26.7113 -26.6958 -26.6927 -26.6814 -26.6800 -26.6713 -26.6709
   -26.6639 -26.6634 -10.5326 -10.4996 -10.4744 -10.4642 -10.4278 -10.4136
   -10.3745 -10.3516 -10.3187 -10.3177 -10.2950 -10.2815 -10.2483 -10.2308
   -10.2097 -10.2001 -10.1930 -10.1762 -10.1663 -10.1553 -10.1530 -10.1380
   -10.1331 -10.1122 -10.1079 -10.1010 -10.0964 -10.0872 -10.0822 -10.0724
    -4.0848  -3.9320  -3.0969  -3.0543  -2.3587  -2.3259  -0.7233  -0.7059
    -0.5729  -0.1382  -0.1053   0.0416   0.0725   0.1508   0.2213   0.2599
     0.2806   0.3887   0.4142   0.5394   1.2197   1.3636   1.5319   1.6723
     1.7151   1.8740   1.9303   2.1023   5.3461   5.7150   5.8793   6.3539
     6.4941   6.5402   6.7202   6.9459   7.0852   7.1979   7.2678   7.3332
     7.4229   7.5665

          k = 0.1667 0.3333 0.2070 ( 44675 PWs)   bands (ev):

   -26.7150 -26.7124 -26.6949 -26.6932 -26.6811 -26.6803 -26.6713 -26.6709
   -26.6638 -26.6635 -10.5284 -10.5095 -10.4740 -10.4589 -10.4294 -10.4147
   -10.3693 -10.3559 -10.3227 -10.3209 -10.2751 -10.2674 -10.2464 -10.2373
   -10.2243 -10.2069 -10.1973 -10.1873 -10.1656 -10.1552 -10.1507 -10.1431
   -10.1204 -10.1095 -10.1069 -10.0958 -10.0934 -10.0872 -10.0827 -10.0782
    -4.0530  -3.9647  -3.0896  -3.0648  -2.3529  -2.3343  -0.7217  -0.7118
    -0.4737  -0.2209  -0.0988   0.0125   0.1012   0.1201   0.1987   0.2726
     0.2913   0.3471   0.4595   0.5399   1.2723   1.3592   1.4933   1.5986
     1.7605   1.8911   1.9690   2.0778   5.4204   5.6496   5.9387   6.2079
     6.5665   6.6075   6.7513   6.9297   7.1079   7.1852   7.2087   7.3721
     7.4083   7.4690

          k = 0.1667 0.3333-0.3104 ( 44658 PWs)   bands (ev):

   -26.7138 -26.7137 -26.6940 -26.6939 -26.6808 -26.6806 -26.6712 -26.6710
   -26.6637 -26.6636 -10.5227 -10.5178 -10.4735 -10.4565 -10.4300 -10.4155
   -10.3631 -10.3615 -10.3235 -10.3229 -10.2583 -10.2566 -10.2483 -10.2465
   -10.2243 -10.2230 -10.1983 -10.1903 -10.1648 -10.1550 -10.1499 -10.1460
   -10.1136 -10.1079 -10.1042 -10.0965 -10.0911 -10.0886 -10.0820 -10.0820
[...]
    -0.2758  -0.1756  -0.1220  -0.0098  -0.0045   0.0346   0.1345   0.2112
     0.2407   0.3132   0.3851   0.4515   1.4502   1.5140   1.5290   1.7182
     1.7879   1.9210   2.1792   2.2920   5.6665   5.7206   6.1944   6.4171
     6.6870   6.7999   6.9100   7.2136   7.3143   7.3921   7.5667   7.6016
     7.6472   7.6936

          k = 0.3333 0.3333 0.1035 ( 44690 PWs)   bands (ev):

   -26.9940 -26.9929 -26.9767 -26.9766 -26.9758 -26.9749 -26.9605 -26.9603
   -26.8667 -26.8663 -10.7444 -10.7191 -10.7031 -10.7014 -10.6377 -10.6318
   -10.6305 -10.6211 -10.5493 -10.5432 -10.5383 -10.5119 -10.4955 -10.4918
   -10.4809 -10.4683 -10.4659 -10.4527 -10.4420 -10.4353 -10.4238 -10.4207
   -10.4157 -10.4117 -10.3768 -10.3686 -10.3470 -10.3264 -10.2961 -10.2861
    -3.9644  -3.8450  -3.2892  -3.2165  -2.8799  -2.8549  -0.5302  -0.3208
    -0.3175  -0.1511  -0.1124  -0.0147  -0.0034   0.0446   0.1153   0.1838
     0.2544   0.3107   0.3924   0.4483   1.4557   1.5098   1.5235   1.6866
     1.8144   1.9309   2.1847   2.2825   5.7090   5.7660   6.2109   6.4623
     6.6092   6.6589   6.9484   7.1846   7.3160   7.4069   7.4391   7.6029
     7.6344   7.7231

          k = 0.3333 0.3333 0.2070 ( 44687 PWs)   bands (ev):

   -26.9937 -26.9931 -26.9767 -26.9766 -26.9756 -26.9751 -26.9605 -26.9603
   -26.8666 -26.8664 -10.7414 -10.7281 -10.7010 -10.6988 -10.6344 -10.6302
   -10.6302 -10.6243 -10.5491 -10.5455 -10.5287 -10.5051 -10.5042 -10.4927
   -10.4805 -10.4673 -10.4641 -10.4586 -10.4440 -10.4435 -10.4225 -10.4211
   -10.4152 -10.4134 -10.3782 -10.3742 -10.3300 -10.3156 -10.2995 -10.2961
    -3.9395  -3.8705  -3.2741  -3.2322  -2.8759  -2.8617  -0.4959  -0.3854
    -0.2620  -0.1418  -0.0875  -0.0307   0.0077   0.0656   0.0757   0.1309
     0.2747   0.3033   0.4083   0.4391   1.4703   1.5087   1.5169   1.6200
     1.8692   1.9370   2.2014   2.2578   5.8307   5.8957   6.1742   6.3434
     6.5815   6.6733   6.8661   7.0617   7.2394   7.3945   7.4355   7.5943
     7.6672   7.7402

          k = 0.3333 0.3333-0.3104 ( 44716 PWs)   bands (ev):

   -26.9934 -26.9934 -26.9767 -26.9767 -26.9754 -26.9754 -26.9604 -26.9604
   -26.8665 -26.8665 -10.7359 -10.7359 -10.6990 -10.6990 -10.6309 -10.6309
   -10.6281 -10.6281 -10.5478 -10.5478 -10.5162 -10.5162 -10.4970 -10.4970
   -10.4771 -10.4771 -10.4579 -10.4579 -10.4474 -10.4474 -10.4216 -10.4216
   -10.4145 -10.4145 -10.3777 -10.3777 -10.3115 -10.3115 -10.3060 -10.3060
    -3.9052  -3.9052  -3.2533  -3.2533  -2.8695  -2.8695  -0.4470  -0.4470
    -0.1869  -0.1869  -0.0572  -0.0572   0.0353   0.0353   0.0909   0.0909
     0.2913   0.2913   0.4250   0.4250   1.4893   1.4893   1.5558   1.5558
     1.9164   1.9164   2.2276   2.2276   6.0055   6.0055   6.0993   6.0993
     6.7305   6.7305   6.8468   6.8468   7.2703   7.2703   7.5139   7.5139
     7.7429   7.7429

          k = 0.3333-0.5000 0.0000 ( 44690 PWs)   bands (ev):

   -26.9852 -26.9852 -26.9843 -26.9843 -26.9684 -26.9684 -26.9680 -26.9680
   -26.8665 -26.8665 -10.7131 -10.7131 -10.6864 -10.6864 -10.5929 -10.5929
   -10.5922 -10.5922 -10.5596 -10.5596 -10.5534 -10.5534 -10.5099 -10.5099
   -10.5043 -10.5043 -10.4545 -10.4545 -10.4453 -10.4453 -10.4328 -10.4328
   -10.4271 -10.4271 -10.3677 -10.3677 -10.3483 -10.3483 -10.2860 -10.2860
    -3.7729  -3.7729  -3.3352  -3.3352  -2.9930  -2.9930  -0.3816  -0.3816
    -0.3497  -0.3497  -0.0568  -0.0568   0.1454   0.1454   0.1584   0.1584
     0.2791   0.2791   0.9089   0.9089   1.0163   1.0163   1.5931   1.5931
     1.8411   1.8411   2.2761   2.2761   5.6281   5.6281   6.2057   6.2057
     6.9489   6.9489   7.1381   7.1381   7.2271   7.2271   7.5944   7.5944
     7.6558   7.6558

          k = 0.3333-0.5000 0.1035 ( 44710 PWs)   bands (ev):

   -26.9852 -26.9852 -26.9843 -26.9843 -26.9684 -26.9684 -26.9680 -26.9680
   -26.8665 -26.8665 -10.7148 -10.7148 -10.6844 -10.6844 -10.5940 -10.5940
   -10.5900 -10.5900 -10.5603 -10.5603 -10.5532 -10.5532 -10.5137 -10.5137
   -10.4993 -10.4993 -10.4540 -10.4540 -10.4502 -10.4502 -10.4324 -10.4324
   -10.4279 -10.4279 -10.3698 -10.3698 -10.3407 -10.3407 -10.2887 -10.2887
    -3.7713  -3.7713  -3.3367  -3.3367  -2.9940  -2.9940  -0.4225  -0.4225
    -0.2933  -0.2933  -0.0509  -0.0509   0.1266   0.1266   0.1536   0.1536
     0.2819   0.2819   0.9114   0.9114   1.0162   1.0162   1.5771   1.5771
     1.8533   1.8533   2.2747   2.2747   5.6758   5.6758   6.2447   6.2447
     6.7809   6.7809   7.1005   7.1005   7.2668   7.2668   7.5774   7.5774
     7.7131   7.7131

          k = 0.3333-0.5000 0.2070 ( 44702 PWs)   bands (ev):

   -26.9852 -26.9852 -26.9844 -26.9844 -26.9684 -26.9684 -26.9680 -26.9680
   -26.8665 -26.8665 -10.7175 -10.7175 -10.6809 -10.6809 -10.5949 -10.5949
   -10.5866 -10.5866 -10.5621 -10.5621 -10.5525 -10.5525 -10.5181 -10.5181
   -10.4907 -10.4907 -10.4639 -10.4639 -10.4508 -10.4508 -10.4317 -10.4317
   -10.4289 -10.4289 -10.3725 -10.3725 -10.3254 -10.3254 -10.2969 -10.2969
    -3.7679  -3.7679  -3.3397  -3.3397  -2.9960  -2.9960  -0.4570  -0.4570
    -0.2175  -0.2175  -0.0405  -0.0405   0.0719   0.0719   0.1541   0.1541
     0.2857   0.2857   0.9165   0.9165   1.0159   1.0159   1.5485   1.5485
     1.8742   1.8742   2.2719   2.2719   5.8059   5.8059   6.2819   6.2819
     6.6030   6.6030   6.9371   6.9371   7.3345   7.3345   7.5201   7.5201
     7.7865   7.7865

          k = 0.3333-0.5000-0.3104 ( 44716 PWs)   bands (ev):

   -26.9852 -26.9852 -26.9844 -26.9844 -26.9684 -26.9684 -26.9680 -26.9680
   -26.8665 -26.8665 -10.7187 -10.7187 -10.6793 -10.6793 -10.5952 -10.5952
   -10.5847 -10.5847 -10.5634 -10.5634 -10.5521 -10.5521 -10.5198 -10.5198
   -10.4825 -10.4825 -10.4743 -10.4743 -10.4499 -10.4499 -10.4313 -10.4313
   -10.4292 -10.4292 -10.3737 -10.3737 -10.3099 -10.3099 -10.3095 -10.3095
    -3.7663  -3.7663  -3.3413  -3.3413  -2.9970  -2.9970  -0.4692  -0.4692
    -0.1738  -0.1738  -0.0384  -0.0384   0.0369   0.0369   0.1549   0.1549
     0.2871   0.2871   0.9190   0.9190   1.0157   1.0157   1.5354   1.5354
     1.8833   1.8833   2.2705   2.2705   5.9229   5.9229   6.1917   6.1917
     6.6620   6.6620   6.7860   6.7860   7.3925   7.3925   7.4441   7.4441
     7.8482   7.8482

          k =-0.5000-0.5000 0.0000 ( 44700 PWs)   bands (ev):

   -26.9774 -26.9774 -26.9773 -26.9773 -26.9763 -26.9763 -26.9750 -26.9750
   -26.8664 -26.8664 -10.6848 -10.6848 -10.6333 -10.6333 -10.6004 -10.6004
   -10.5798 -10.5798 -10.5698 -10.5698 -10.5624 -10.5624 -10.5234 -10.5234
   -10.4979 -10.4979 -10.4687 -10.4687 -10.4581 -10.4581 -10.4492 -10.4492
   -10.4477 -10.4477 -10.3645 -10.3645 -10.3553 -10.3553 -10.2829 -10.2829
    -3.5484  -3.5484  -3.3764  -3.3764  -3.2543  -3.2543  -0.4585  -0.4585
    -0.2136  -0.2136  -0.1905  -0.1905   0.1414   0.1414   0.2905   0.2905
     0.6900   0.6900   0.8725   0.8725   0.9554   0.9554   1.2957   1.2957
     1.8227   1.8227   2.3193   2.3193   5.5527   5.5527   6.0946   6.0946
     7.0973   7.0973   7.2510   7.2510   7.3189   7.3189   7.3437   7.3437
     7.7048   7.7048

          k =-0.5000-0.5000 0.1035 ( 44740 PWs)   bands (ev):

   -26.9774 -26.9774 -26.9773 -26.9773 -26.9763 -26.9763 -26.9750 -26.9750
   -26.8665 -26.8665 -10.6850 -10.6850 -10.6329 -10.6329 -10.5984 -10.5984
   -10.5802 -10.5802 -10.5699 -10.5699 -10.5636 -10.5636 -10.5241 -10.5241
   -10.4961 -10.4961 -10.4686 -10.4686 -10.4590 -10.4590 -10.4542 -10.4542
   -10.4474 -10.4474 -10.3651 -10.3651 -10.3476 -10.3476 -10.2864 -10.2864
    -3.5482  -3.5482  -3.3687  -3.3687  -3.2629  -3.2629  -0.4741  -0.4741
    -0.1911  -0.1911  -0.1712  -0.1712   0.1158   0.1158   0.2906   0.2906
     0.6901   0.6901   0.8791   0.8791   0.9505   0.9505   1.2915   1.2915
     1.8215   1.8215   2.3184   2.3184   5.6009   5.6009   6.1535   6.1535
     6.9055   6.9055   7.0147   7.0147   7.3623   7.3623   7.6417   7.6417
     7.6845   7.6845

          k =-0.5000-0.5000 0.2070 ( 44728 PWs)   bands (ev):

   -26.9774 -26.9774 -26.9773 -26.9773 -26.9763 -26.9763 -26.9750 -26.9750
   -26.8665 -26.8665 -10.6853 -10.6853 -10.6322 -10.6322 -10.5929 -10.5929
   -10.5820 -10.5820 -10.5698 -10.5698 -10.5666 -10.5666 -10.5254 -10.5254
   -10.4905 -10.4905 -10.4684 -10.4684 -10.4677 -10.4677 -10.4602 -10.4602
   -10.4443 -10.4443 -10.3662 -10.3662 -10.3304 -10.3304 -10.2964 -10.2964
    -3.5478  -3.5478  -3.3472  -3.3472  -3.2863  -3.2863  -0.5006  -0.5006
    -0.1374  -0.1374  -0.1289  -0.1289   0.0476   0.0476   0.2908   0.2908
     0.6902   0.6902   0.8961   0.8961   0.9369   0.9369   1.2829   1.2829
     1.8190   1.8190   2.3167   2.3167   5.7243   5.7243   6.3186   6.3186
     6.5731   6.5731   6.8101   6.8101   7.4181   7.4181   7.6116   7.6116
     7.9377   7.9378

          k =-0.5000-0.5000-0.3104 ( 44640 PWs)   bands (ev):

   -26.9774 -26.9774 -26.9774 -26.9774 -26.9762 -26.9762 -26.9750 -26.9750
   -26.8664 -26.8664 -10.6855 -10.6855 -10.6319 -10.6319 -10.5865 -10.5865
   -10.5865 -10.5865 -10.5690 -10.5690 -10.5690 -10.5690 -10.5261 -10.5261
   -10.4809 -10.4809 -10.4809 -10.4809 -10.4682 -10.4682 -10.4606 -10.4606
   -10.4429 -10.4429 -10.3668 -10.3668 -10.3118 -10.3118 -10.3118 -10.3118
    -3.5476  -3.5476  -3.3172  -3.3172  -3.3172  -3.3172  -0.5122  -0.5122
    -0.1220  -0.1220  -0.0421  -0.0421  -0.0421  -0.0421   0.2910   0.2910
     0.6903   0.6903   0.9173   0.9173   0.9173   0.9173   1.2785   1.2785
     1.8178   1.8178   2.3158   2.3158   5.8146   5.8146   6.4116   6.4116
     6.5557   6.5557   6.5557   6.5557   7.5078   7.5078   7.5078   7.5078
     8.0033   8.0033

     the Fermi energy is     4.1366 ev

!    total energy              =   -1400.35941843 Ry
     estimated scf accuracy    <          8.9E-11 Ry
     smearing contrib. (-TS)   =       0.00000000 Ry
     internal energy E=F+TS    =   -1400.35941843 Ry

     The total energy is F=E-TS. E is the sum of the following terms:
     one-electron contribution =    -229.25896244 Ry
     hartree contribution      =     155.70645136 Ry
     xc contribution           =    -148.35959297 Ry
     ewald contribution        =    -416.28517824 Ry
     one-center paw contrib.   =    -762.16213615 Ry

     convergence has been achieved in   6 iterations

     Forces acting on atoms (cartesian axes, Ry/au):

     atom    1 type  3   force =     0.00000000    0.00000000    0.00000000
     atom    2 type  3   force =     0.00000000    0.00000000    0.00000000
     atom    3 type  3   force =     0.00002998    0.00002998    0.00000000
     atom    4 type  3   force =    -0.00002998    0.00002998    0.00000000
     atom    5 type  3   force =    -0.00002998   -0.00002998    0.00000000
     atom    6 type  3   force =    -0.00002998    0.00002998    0.00000000
     atom    7 type  3   force =    -0.00002998   -0.00002998    0.00000000
     atom    8 type  3   force =     0.00002998   -0.00002998    0.00000000
     atom    9 type  3   force =     0.00002998   -0.00002998    0.00000000
     atom   10 type  3   force =     0.00002998    0.00002998    0.00000000
     atom   11 type  1   force =     0.00000000    0.00000000    0.00000000
     atom   12 type  1   force =     0.00000000    0.00000000   -0.00000000
     atom   13 type  1   force =     0.00000000    0.00000000   -0.00000000
     atom   14 type  1   force =     0.00000000    0.00000000    0.00000000
     atom   15 type  1   force =     0.00000000    0.00000000    0.00000000
     atom   16 type  1   force =     0.00000000    0.00000000   -0.00000000
     atom   17 type  2   force =    -0.00008828   -0.00004313   -0.00006723
     atom   18 type  2   force =     0.00008828   -0.00004313    0.00006723
     atom   19 type  2   force =     0.00004313    0.00008828    0.00006723
     atom   20 type  2   force =     0.00008828   -0.00004313   -0.00006723
     atom   21 type  2   force =     0.00004313    0.00008828   -0.00006723
     atom   22 type  2   force =     0.00008828    0.00004313   -0.00006723
     atom   23 type  2   force =    -0.00004313    0.00008828   -0.00006723
     atom   24 type  2   force =     0.00008828    0.00004313    0.00006723
     atom   25 type  2   force =    -0.00004313    0.00008828    0.00006723
     atom   26 type  2   force =     0.00004313   -0.00008828   -0.00006723
     atom   27 type  2   force =    -0.00008828   -0.00004313    0.00006723
     atom   28 type  2   force =     0.00004313   -0.00008828    0.00006723
     atom   29 type  2   force =    -0.00008828    0.00004313    0.00006723
     atom   30 type  2   force =    -0.00004313   -0.00008828    0.00006723
     atom   31 type  2   force =    -0.00008828    0.00004313   -0.00006723
     atom   32 type  2   force =    -0.00004313   -0.00008828   -0.00006723
     atom   33 type  2   force =     0.00000000    0.00000000   -0.00068515
     atom   34 type  2   force =     0.00000000    0.00000000    0.00068515
     atom   35 type  2   force =     0.00000000    0.00000000   -0.00068515
     atom   36 type  2   force =     0.00000000    0.00000000    0.00068515
     atom   37 type  2   force =     0.00040611   -0.00023971    0.00000000
     atom   38 type  2   force =    -0.00040611   -0.00023971    0.00000000
     atom   39 type  2   force =     0.00023971   -0.00040611    0.00000000
     atom   40 type  2   force =    -0.00040611    0.00023971    0.00000000
     atom   41 type  2   force =    -0.00023971   -0.00040611    0.00000000
     atom   42 type  2   force =     0.00023971    0.00040611    0.00000000
     atom   43 type  2   force =     0.00040611    0.00023971    0.00000000
     atom   44 type  2   force =    -0.00023971    0.00040611    0.00000000

     Total force =     0.001974     Total SCF correction =     0.000012


     Computing stress (Cartesian axis) and pressure

          total   stress  (Ry/bohr**3)                   (kbar)     P=       -0.27
   0.00002051   0.00000000   0.00000000            3.02        0.00        0.00
   0.00000000   0.00002051   0.00000000            0.00        3.02        0.00
   0.00000000   0.00000000  -0.00004660            0.00        0.00       -6.86

     Energy error            =      3.8E-05 Ry
     Gradient error          =      6.9E-04 Ry/Bohr

     bfgs converged in  19 scf cycles and  18 bfgs steps
     (criteria: energy <  1.0E-04 Ry, force <  1.0E-03 Ry/Bohr)

     End of BFGS Geometry Optimization

     Final energy             =   -1400.3594184310 Ry

     File ./k5al3h14.bfgs deleted, as requested
Begin final coordinates

ATOMIC_POSITIONS (crystal)
K             0.0000000000        0.0000000000        0.5000000000
K             0.5000000000        0.5000000000        0.0000000000
K             0.2917230712        0.7917230712        0.2500000000
K             0.2082769288        0.2917230712        0.2500000000
K             0.7082769288        0.2082769288        0.2500000000
K             0.2082769288        0.2917230712        0.7500000000
K             0.7082769288        0.2082769288        0.7500000000
K             0.7917230712        0.7082769288        0.2500000000
K             0.7917230712        0.7082769288        0.7500000000
K             0.2917230712        0.7917230712        0.7500000000
Al            0.0000000000        0.0000000000       -0.0000000000
Al            0.5000000000        0.5000000000        0.5000000000
Al            0.0000000000        0.5000000000       -0.0000000000
Al            0.5000000000        0.0000000000        0.5000000000
Al            0.0000000000        0.5000000000        0.5000000000
Al            0.5000000000        0.0000000000        0.0000000000
H             0.5433039353        0.8348610650        0.1051107069
H             0.9566960647        0.3348610650        0.3948892931
H             0.6651389350        0.9566960647        0.3948892931
H             0.9566960647        0.3348610650        0.6051107069
H             0.6651389350        0.9566960647        0.6051107069
H             0.4566960647        0.1651389350        0.1051107069
H             0.8348610650        0.4566960647        0.1051107069
H             0.4566960647        0.1651389350        0.8948892931
H             0.8348610650        0.4566960647        0.8948892931
H             0.1651389350        0.5433039353        0.1051107069
H             0.5433039353        0.8348610650        0.8948892931
H             0.1651389350        0.5433039353        0.8948892931
H             0.0433039353        0.6651389350        0.3948892931
H             0.3348610650        0.0433039353        0.3948892931
H             0.0433039353        0.6651389350        0.6051107069
H             0.3348610650        0.0433039353        0.6051107069
H             0.0000000000        0.0000000000        0.1521826764
H             0.5000000000        0.5000000000        0.3478173236
H             0.5000000000        0.5000000000        0.6521826764
H             0.0000000000        0.0000000000        0.8478173236
H             0.7542896291        0.0580343515        0.0000000000
H             0.7457103709        0.5580343515        0.5000000000
H             0.4419656485        0.7457103709        0.5000000000
H             0.2457103709        0.9419656485        0.0000000000
H             0.0580343515        0.2457103709       -0.0000000000
H             0.9419656485        0.7542896291       -0.0000000000
H             0.2542896291        0.4419656485        0.5000000000
H             0.5580343515        0.2542896291        0.5000000000
End final coordinates



     Writing all to output data dir ./k5al3h14.save/
 
     init_run     :      1.93s CPU      2.11s WALL (       1 calls)
     electrons    :    479.38s CPU    488.18s WALL (      19 calls)
     update_pot   :      4.68s CPU      4.77s WALL (      18 calls)
     forces       :     16.09s CPU     16.45s WALL (      19 calls)
     stress       :     98.01s CPU     98.79s WALL (      19 calls)

     Called by init_run:
     wfcinit      :      1.39s CPU      1.46s WALL (       1 calls)
     potinit      :      0.15s CPU      0.19s WALL (       1 calls)
     hinit0       :      0.15s CPU      0.18s WALL (       1 calls)

     Called by electrons:
     c_bands      :    414.60s CPU    419.89s WALL (     135 calls)
     sum_band     :     52.53s CPU     54.02s WALL (     135 calls)
     v_of_rho     :      2.01s CPU      2.05s WALL (     146 calls)
     newd         :      3.29s CPU      4.17s WALL (     146 calls)
     PAW_pot      :      8.01s CPU      8.49s WALL (     164 calls)
     mix_rho      :      0.47s CPU      0.49s WALL (     135 calls)

     Called by c_bands:
     init_us_2    :     13.00s CPU     13.13s WALL (    4578 calls)
     init_us_2:cp :     12.97s CPU     13.11s WALL (    4578 calls)
     cegterg      :    350.01s CPU    353.90s WALL (    1890 calls)

     Called by *egterg:
     cdiaghg      :     56.27s CPU     56.64s WALL (    8572 calls)
     h_psi        :    202.84s CPU    205.76s WALL (    8950 calls)
     s_psi        :     25.27s CPU     25.44s WALL (    8950 calls)
     g_psi        :      0.96s CPU      0.96s WALL (    7046 calls)

     Called by h_psi:
     h_psi:calbec :     27.35s CPU     27.62s WALL (    8950 calls)
     vloc_psi     :    146.75s CPU    149.16s WALL (    8950 calls)
     add_vuspsi   :     26.30s CPU     26.51s WALL (    8950 calls)

     General routines
     calbec       :     45.55s CPU     45.96s WALL (   12422 calls)
     fft          :      1.50s CPU      1.55s WALL (    2361 calls)
     ffts         :      0.17s CPU      0.18s WALL (     281 calls)
     fftw         :    159.35s CPU    161.89s WALL (  983376 calls)
     interpolate  :      0.19s CPU      0.20s WALL (     146 calls)
 
     Parallel routines
 
     PWSCF        :  10m 5.56s CPU  10m16.92s WALL

 
   This run was terminated on:  22:18:18  27Nov2023            

=------------------------------------------------------------------------------=
   JOB DONE.
=------------------------------------------------------------------------------=
Job execution finished at: Mon Nov 27 22:18:19 IST 2023
