==========================================
SLURM_CLUSTER_NAME = paramganga
SLURM_ARRAY_JOB_ID = 
SLURM_ARRAY_TASK_ID = 
SLURM_ARRAY_TASK_COUNT = 
SLURM_ARRAY_TASK_MAX = 
SLURM_ARRAY_TASK_MIN = 
SLURM_JOB_ACCOUNT = iitr
SLURM_JOB_ID = 168108
SLURM_JOB_NAME = 19280
SLURM_JOB_NODELIST = cn[029-031]
SLURM_JOB_USER = garima.iitr
SLURM_JOB_UID = 38339
SLURM_JOB_PARTITION = debug
SLURM_TASK_PID = 21498
SLURM_SUBMIT_DIR = /home/garima.iitr/.cache/.es/compmat/naalh4
SLURM_CPUS_ON_NODE = 48
SLURM_NTASKS = 144
SLURM_TASK_PID = 21498
==========================================
cn029
 
:: initializing oneAPI environment ...
   slurm_script: BASH_VERSION = 4.2.46(2)-release
   args: Using "$@" for setvars.sh arguments: 
:: advisor -- latest
:: ccl -- latest
:: clck -- latest
:: compiler -- latest
:: dal -- latest
:: debugger -- latest
:: dev-utilities -- latest
:: dnnl -- latest
:: dpcpp-ct -- latest
:: dpl -- latest
:: inspector -- latest
:: intelpython -- latest
:: ipp -- latest
:: ippcp -- latest
:: ipp -- latest
:: itac -- latest
:: mkl -- latest
:: mpi -- latest
:: tbb -- latest
:: vpl -- latest
:: vtune -- latest
:: oneAPI environment initialized ::
 
Job execution start: Tue Oct 31 12:17:54 IST 2023
Job submitted by garima.iitr
The job ID is:168108

     Program PWSCF v.7.1 starts on 31Oct2023 at 12:17:58 

     This program is part of the open-source Quantum ESPRESSO suite
     for quantum simulation of materials; please cite
         "P. Giannozzi et al., J. Phys.:Condens. Matter 21 395502 (2009);
         "P. Giannozzi et al., J. Phys.:Condens. Matter 29 465901 (2017);
         "P. Giannozzi et al., J. Chem. Phys. 152 154105 (2020);
          URL http://www.quantum-espresso.org", 
     in publications or presentations arising from this work. More details at
     http://www.quantum-espresso.org/quote

     Parallel version (MPI & OpenMP), running on     144 processor cores
     Number of MPI processes:               144
     Threads/MPI process:                     1

     MPI processes distributed on     3 nodes
     167989 MiB available memory on the printing compute node when the environment starts
 
     Reading input from naalh4.in

     Current dimensions of program PWSCF are:
     Max number of different atomic species (ntypx) = 10
     Max number of k-points (npk) =  40000
     Max angular momentum in pseudopotentials (lmaxx) =  4
     file Al.pbe-n-kjpaw_psl.1.0.0.UPF: wavefunction(s)  3S 3P renormalized

     IMPORTANT: XC functional enforced from input :
     Exchange-correlation= PBE
                           (   1   4   3   4   0   0   0)
     Any further DFT definition will be discarded
     Please, verify this is what you really want

     Message from routine setup:
     using ibrav=0 with symmetry is DISCOURAGED, use correct ibrav instead
 
     K-points division:     npool     =       4
     R & G space division:  proc/nbgrp/npool/nimage =      36
     Subspace diagonalization in iterative solution of the eigenvalue problem:
     a serial algorithm will be used

 
     Parallelization info
     --------------------
     sticks:   dense  smooth     PW     G-vecs:    dense   smooth      PW
     Min          72      57     16                 3083     2202     344
     Max          73      58     17                 3088     2206     351
     Sum        2593    2085    601               111001    79377   12507
 
     Using Slab Decomposition
 


     bravais-lattice index     =            0
     lattice parameter (alat)  =       9.3373  a.u.
     unit-cell volume          =     905.3038 (a.u.)^3
     number of atoms/cell      =           12
     number of atomic types    =            3
     number of electrons       =        32.00
     number of Kohn-Sham states=           20
     kinetic-energy cutoff     =      75.0000  Ry
     charge density cutoff     =     375.0000  Ry
     scf convergence threshold =      1.0E-08
     mixing beta               =       0.7000
     number of iterations used =            8  plain     mixing
     energy convergence thresh.=      1.0E-04
     force convergence thresh. =      1.0E-03
     Exchange-correlation= PBE
                           (   1   4   3   4   0   0   0)
     nstep                     =           50


     celldm(1)=   9.337326  celldm(2)=   0.000000  celldm(3)=   0.000000
     celldm(4)=   0.000000  celldm(5)=   0.000000  celldm(6)=   0.000000

     crystal axes: (cart. coord. in units of alat)
               a(1) = (   1.000000   0.000000   0.000000 )  
               a(2) = (   0.000000   1.000000   0.000000 )  
               a(3) = (   0.500000   0.500000   1.112056 )  

     reciprocal axes: (cart. coord. in units 2 pi/alat)
               b(1) = (  1.000000  0.000000 -0.449617 )  
               b(2) = (  0.000000  1.000000 -0.449617 )  
               b(3) = (  0.000000  0.000000  0.899235 )  


     PseudoPot. # 1 for Al read from file:
     /home/garima.iitr/.cache/.es/compmat/naalh4/Al.pbe-n-kjpaw_psl.1.0.0.UPF
     MD5 check sum: 502b6b27b9c6270cab5dd1084b96fa6d
     Pseudo is Projector augmented-wave + core cor, Zval =  3.0
     Generated using &quot;atomic&quot; code by A. Dal Corso  v.6.3
     Shape of augmentation charge: PSQ
     Using radial grid of 1135 points,  6 beta functions with: 
                l(1) =   0
                l(2) =   0
                l(3) =   1
                l(4) =   1
                l(5) =   2
                l(6) =   2
     Q(r) pseudized with 0 coefficients 


     PseudoPot. # 2 for H  read from file:
     /home/garima.iitr/.cache/.es/compmat/naalh4/H.pbe-rrkjus_psl.1.0.0.UPF
     MD5 check sum: 3f4114867bd07edc7f1424d066fc1888
     Pseudo is Ultrasoft, Zval =  1.0
     Generated using &quot;atomic&quot; code by A. Dal Corso  v.6.3MaX
     Using radial grid of  929 points,  2 beta functions with: 
                l(1) =   0
                l(2) =   0
     Q(r) pseudized with 0 coefficients 


     PseudoPot. # 3 for Na read from file:
     /home/garima.iitr/.cache/.es/compmat/naalh4/na_pbe_v1.5.uspp.F.UPF
     MD5 check sum: 44600605ef58000f06b90626533354dc
     Pseudo is Ultrasoft, Zval =  9.0
     Generated by new atomic code, or converted to UPF format
     Using radial grid of  819 points,  5 beta functions with: 
                l(1) =   0
                l(2) =   0
                l(3) =   1
                l(4) =   1
                l(5) =   2
     Q(r) pseudized with  8 coefficients,  rinner =    1.250   1.250   1.250
                                                       1.250   1.250

     atomic species   valence    mass     pseudopotential
        Al             3.00    26.98100     Al( 1.00)
        H              1.00     1.00750     H ( 1.00)
        Na             9.00    22.98900     Na( 1.00)

      8 Sym. Ops., with inversion, found ( 6 have fractional translation)



   Cartesian axes

     site n.     atom                  positions (alat units)
         1           Al  tau(   1) = (   1.0000000   0.2500000   0.2780141  )
         2           Al  tau(   2) = (   0.5000000   1.2500000   0.8340423  )
         3           Na  tau(   3) = (   0.5000000   0.7500000   0.2780141  )
         4           Na  tau(   4) = (   1.0000000   0.7500000   0.8340423  )
         5           H   tau(   5) = (   0.3578100   1.0135100   0.6538447  )
         6           H   tau(   6) = (   0.7635100   0.3921900   0.0978165  )
         7           H   tau(   7) = (   1.2635100   1.3921900   1.0142399  )
         8           H   tau(   8) = (   0.8578100   1.0135100   0.4582117  )
         9           H   tau(   9) = (   0.6421900   0.4864900   0.6538447  )
        10           H   tau(  10) = (   1.1421900   0.4864900   0.4582117  )
        11           H   tau(  11) = (   0.7364900   1.1078100   1.0142399  )
        12           H   tau(  12) = (   0.2364900   0.1078100   0.0978165  )

     number of k points=    30  Marzari-Vanderbilt smearing, width (Ry)=  0.0050
                       cart. coord. in units 2pi/alat
        k(    1) = (   0.0000000   0.0000000   0.0000000), wk =   0.0185185
        k(    2) = (   0.0000000   0.0000000   0.2997450), wk =   0.0370370
        k(    3) = (   0.0000000   0.1666667  -0.0749362), wk =   0.0740741
        k(    4) = (   0.0000000   0.1666667   0.2248087), wk =   0.0740741
        k(    5) = (   0.0000000   0.1666667  -0.3746812), wk =   0.0740741
        k(    6) = (   0.0000000   0.3333333  -0.1498725), wk =   0.1481481
        k(    7) = (   0.0000000   0.3333333  -0.4496175), wk =   0.0740741
        k(    8) = (   0.0000000  -0.5000000   0.2248087), wk =   0.0370370
        k(    9) = (   0.0000000  -0.5000000   0.5245537), wk =   0.0740741
        k(   10) = (   0.1666667   0.1666667  -0.1498725), wk =   0.0740741
        k(   11) = (   0.1666667   0.1666667  -0.4496175), wk =   0.0370370
        k(   12) = (   0.1666667   0.3333333  -0.2248087), wk =   0.0740741
        k(   13) = (   0.1666667   0.3333333   0.0749362), wk =   0.0740741
        k(   14) = (   0.1666667   0.3333333  -0.5245537), wk =   0.0740741
        k(   15) = (   0.1666667  -0.5000000   0.1498725), wk =   0.0740741
        k(   16) = (   0.1666667  -0.5000000   0.4496175), wk =   0.0370370
        k(   17) = (   0.1666667  -0.1666667  -0.0000000), wk =   0.0370370
        k(   18) = (   0.1666667  -0.1666667   0.2997450), wk =   0.0740741
        k(   19) = (   0.3333333   0.3333333  -0.2997450), wk =   0.1481481
        k(   20) = (   0.3333333   0.3333333   0.0000000), wk =   0.0740741
        k(   21) = (   0.3333333  -0.5000000   0.0749362), wk =   0.0740741
        k(   22) = (   0.3333333  -0.5000000  -0.2248087), wk =   0.0740741
        k(   23) = (  -0.5000000  -0.5000000   0.4496175), wk =   0.0185185
        k(   24) = (  -0.5000000  -0.5000000   0.7493625), wk =   0.0370370
        k(   25) = (   0.3333333   0.1666667   0.2248087), wk =   0.0740741
        k(   26) = (   0.3333333   0.1666667  -0.0749362), wk =   0.0740741
        k(   27) = (   0.3333333   0.1666667   0.5245537), wk =   0.0740741
        k(   28) = (  -0.5000000   0.1666667  -0.1498725), wk =   0.0740741
        k(   29) = (  -0.5000000   0.1666667  -0.4496175), wk =   0.0370370
        k(   30) = (  -0.5000000   0.3333333  -0.0749362), wk =   0.0740741

     Dense  grid:   111001 G-vectors     FFT dimensions: (  60,  60,  80)

     Smooth grid:    79377 G-vectors     FFT dimensions: (  54,  54,  72)

     Estimated max dynamical RAM per process >      10.45 MB

     Estimated total dynamical RAM >       1.39 GB

     Initial potential from superposition of free atoms

     starting charge      31.9828, renormalised to      32.0000
     Starting wfcs are   26 randomized atomic wfcs
     Checking if some PAW data can be deallocated... 

     total cpu time spent up to now is        0.9 secs

     Self-consistent Calculation

     iteration #  1     ecut=    75.00 Ry     beta= 0.70
     Davidson diagonalization with overlap
     ethr =  1.00E-02,  avg # of iterations =  3.9

     total cpu time spent up to now is        1.1 secs

     total energy              =    -279.10888508 Ry
     estimated scf accuracy    <       0.55161435 Ry

     iteration #  2     ecut=    75.00 Ry     beta= 0.70
     Davidson diagonalization with overlap
     ethr =  1.72E-03,  avg # of iterations =  2.0

     total cpu time spent up to now is        1.4 secs

     total energy              =    -279.14563053 Ry
     estimated scf accuracy    <       0.01006631 Ry

     iteration #  3     ecut=    75.00 Ry     beta= 0.70
     Davidson diagonalization with overlap
     ethr =  3.15E-05,  avg # of iterations =  9.1

     total cpu time spent up to now is        1.7 secs

     total energy              =    -279.14843372 Ry
     estimated scf accuracy    <       0.00036703 Ry

     iteration #  4     ecut=    75.00 Ry     beta= 0.70
     Davidson diagonalization with overlap
     ethr =  1.15E-06,  avg # of iterations =  4.8

     total cpu time spent up to now is        1.9 secs

     total energy              =    -279.14853886 Ry
     estimated scf accuracy    <       0.00004379 Ry

     iteration #  5     ecut=    75.00 Ry     beta= 0.70
     Davidson diagonalization with overlap
     ethr =  1.37E-07,  avg # of iterations =  2.3

     total cpu time spent up to now is        2.1 secs

     total energy              =    -279.14854644 Ry
     estimated scf accuracy    <       0.00000493 Ry

     iteration #  6     ecut=    75.00 Ry     beta= 0.70
     Davidson diagonalization with overlap
     ethr =  1.54E-08,  avg # of iterations =  2.1

     total cpu time spent up to now is        2.3 secs

     total energy              =    -279.14854702 Ry
     estimated scf accuracy    <       0.00000006 Ry

     iteration #  7     ecut=    75.00 Ry     beta= 0.70
     Davidson diagonalization with overlap
     ethr =  1.94E-10,  avg # of iterations =  4.4

     total cpu time spent up to now is        2.5 secs

     total energy              =    -279.14854706 Ry
     estimated scf accuracy    <       0.00000002 Ry

     iteration #  8     ecut=    75.00 Ry     beta= 0.70
     Davidson diagonalization with overlap
     ethr =  4.92E-11,  avg # of iterations =  2.1

     total cpu time spent up to now is        2.7 secs

     End of self-consistent calculation

          k = 0.0000 0.0000 0.0000 (  9889 PWs)   bands (ev):

   -49.8254 -49.8239 -21.7585 -21.7508 -21.7508 -21.7448 -21.7448 -21.7345
    -6.2373  -2.9955  -2.2682  -1.2826  -1.2826  -0.8764  -0.8764  -0.1026
     4.7474   4.8205   5.4554   6.2875

          k = 0.0000 0.0000 0.2997 (  9928 PWs)   bands (ev):

   -49.8251 -49.8243 -21.7534 -21.7534 -21.7526 -21.7423 -21.7423 -21.7406
    -5.7837  -4.5052  -1.7340  -1.7340  -0.9766  -0.2802  -0.2151  -0.2151
     4.7961   4.9047   6.5015   6.5017

          k = 0.0000 0.1667-0.0749 (  9902 PWs)   bands (ev):

   -49.8254 -49.8240 -21.7582 -21.7514 -21.7512 -21.7446 -21.7443 -21.7350
    -6.0841  -3.2974  -2.0374  -1.6829  -1.2851  -0.9711  -0.7839  -0.0325
     4.8888   5.3416   5.6379   6.3121

          k = 0.0000 0.1667 0.2248 (  9922 PWs)   bands (ev):

   -49.8252 -49.8242 -21.7556 -21.7529 -21.7526 -21.7430 -21.7430 -21.7378
    -5.8619  -4.0510  -2.0979  -1.5560  -1.2675  -0.5478  -0.4226  -0.0863
     4.8589   5.2722   6.2041   6.3656

          k = 0.0000 0.1667-0.3747 (  9926 PWs)   bands (ev):

   -49.8249 -49.8245 -21.7550 -21.7536 -21.7499 -21.7442 -21.7420 -21.7404
    -5.4292  -4.8061  -2.2780  -1.7109  -0.6920  -0.3637  -0.1753  -0.1471
     5.0205   5.3353   5.9723   6.4271

          k = 0.0000 0.3333-0.1499 (  9933 PWs)   bands (ev):

   -49.8252 -49.8242 -21.7574 -21.7529 -21.7519 -21.7436 -21.7435 -21.7363
    -5.6668  -3.8463  -2.3470  -1.9387  -1.2446  -0.7579  -0.6617  -0.0760
     5.1866   5.7147   6.0290   6.4410

          k = 0.0000 0.3333-0.4496 (  9943 PWs)   bands (ev):

   -49.8249 -49.8245 -21.7569 -21.7531 -21.7498 -21.7452 -21.7423 -21.7384
    -5.0933  -4.7382  -2.9386  -1.5000  -0.8050  -0.6200  -0.2734  -0.2313
     5.1589   5.6224   6.0816   6.7911

          k = 0.0000-0.5000 0.2248 (  9914 PWs)   bands (ev):

   -49.8251 -49.8243 -21.7568 -21.7538 -21.7523 -21.7431 -21.7427 -21.7373
    -5.3032  -4.2734  -2.5706  -2.0223  -1.1957  -0.6568  -0.3964  -0.2462
     5.4140   5.8207   5.9883   5.9896

          k = 0.0000-0.5000 0.5246 (  9928 PWs)   bands (ev):

   -49.8251 -49.8243 -21.7579 -21.7523 -21.7517 -21.7443 -21.7431 -21.7367
    -5.3151  -4.2042  -2.8879  -1.5386  -1.2023  -0.7782  -0.5853  -0.1730
     5.2902   5.6896   6.0270   6.6349

          k = 0.1667 0.1667-0.1499 (  9925 PWs)   bands (ev):

   -49.8253 -49.8241 -21.7572 -21.7529 -21.7515 -21.7446 -21.7429 -21.7361
    -5.8794  -3.6547  -1.9232  -1.8587  -1.4687  -0.9403  -0.5925  -0.0550
     5.3171   5.3373   5.8072   6.5166

          k = 0.1667 0.1667-0.4496 (  9962 PWs)   bands (ev):

   -49.8247 -49.8247 -21.7550 -21.7548 -21.7475 -21.7470 -21.7407 -21.7404
    -5.0474  -5.0426  -2.2214  -2.1859  -0.4845  -0.3770  -0.2876  -0.2190
     5.3013   5.3706   6.0862   6.1368

          k = 0.1667 0.3333-0.2248 (  9936 PWs)   bands (ev):

   -49.8251 -49.8243 -21.7565 -21.7544 -21.7516 -21.7447 -21.7414 -21.7373
    -5.4338  -4.0533  -2.5076  -1.7689  -1.4908  -0.8586  -0.5737  -0.1012
     5.3642   5.5986   6.2604   6.4090

          k = 0.1667 0.3333 0.0749 (  9931 PWs)   bands (ev):

   -49.8252 -49.8242 -21.7581 -21.7533 -21.7506 -21.7458 -21.7425 -21.7356
    -5.6209  -3.6381  -2.2406  -1.8722  -1.4663  -1.2052  -0.8765  -0.0626
     5.2276   5.6504   6.0876   6.8887

          k = 0.1667 0.3333-0.5246 (  9926 PWs)   bands (ev):

   -49.8249 -49.8245 -21.7567 -21.7542 -21.7502 -21.7454 -21.7412 -21.7384
    -5.0979  -4.5427  -2.7975  -1.8864  -0.9191  -0.6244  -0.3896  -0.3509
     5.3718   5.7862   5.9484   6.4236

          k = 0.1667-0.5000 0.1499 (  9928 PWs)   bands (ev):

   -49.8250 -49.8244 -21.7573 -21.7542 -21.7513 -21.7451 -21.7414 -21.7370
    -5.1923  -4.2064  -2.6308  -1.8010  -1.4884  -0.9251  -0.4864  -0.3537
     5.4114   5.6552   6.1978   6.5413

          k = 0.1667-0.5000 0.4496 (  9933 PWs)   bands (ev):

   -49.8250 -49.8244 -21.7579 -21.7539 -21.7499 -21.7464 -21.7416 -21.7367
    -5.2057  -4.1388  -2.8333  -1.6475  -1.3044  -1.0030  -0.8049  -0.1068
     5.0852   5.6685   6.1507   6.4793

          k = 0.1667-0.1667-0.0000 (  9916 PWs)   bands (ev):

   -49.8253 -49.8240 -21.7585 -21.7519 -21.7506 -21.7455 -21.7438 -21.7348
    -5.9884  -3.2070  -2.0798  -1.5612  -1.4887  -1.3318  -0.8424  -0.0400
     5.4255   5.4795   5.5611   6.1230

          k = 0.1667-0.1667 0.2997 (  9925 PWs)   bands (ev):

   -49.8250 -49.8244 -21.7549 -21.7543 -21.7515 -21.7439 -21.7414 -21.7392
    -5.5583  -4.3805  -2.1359  -2.0907  -0.9204  -0.5019  -0.3046  -0.1438
     5.2510   5.4306   5.9222   6.3462

          k = 0.3333 0.3333-0.2997 (  9932 PWs)   bands (ev):

   -49.8249 -49.8245 -21.7564 -21.7559 -21.7504 -21.7463 -21.7396 -21.7381
    -4.9905  -4.2456  -2.5313  -2.2112  -1.4058  -0.9444  -0.6549  -0.4238
     5.4894   5.5913   5.8790   6.5793

          k = 0.3333 0.3333 0.0000 (  9944 PWs)   bands (ev):

   -49.8251 -49.8243 -21.7581 -21.7544 -21.7499 -21.7471 -21.7413 -21.7359
    -5.3125  -3.7279  -1.9988  -1.9400  -1.8813  -1.3587  -1.1725  -0.2446
     4.8426   6.2826   6.6869   7.0539

          k = 0.3333-0.5000 0.0749 (  9934 PWs)   bands (ev):

   -49.8249 -49.8245 -21.7575 -21.7555 -21.7497 -21.7473 -21.7399 -21.7372
    -4.8782  -4.1737  -2.5009  -2.0327  -1.5503  -1.2933  -0.9526  -0.4273
     4.9494   5.7627   6.4595   6.9727

          k = 0.3333-0.5000-0.2248 (  9938 PWs)   bands (ev):

   -49.8249 -49.8245 -21.7570 -21.7560 -21.7502 -21.7469 -21.7395 -21.7375
    -4.8709  -4.1929  -2.4729  -1.9032  -1.7388  -1.3389  -0.8017  -0.5013
     5.3711   5.5367   6.2606   6.8269

          k =-0.5000-0.5000 0.4496 (  9930 PWs)   bands (ev):

   -49.8247 -49.8247 -21.7568 -21.7568 -21.7487 -21.7487 -21.7382 -21.7382
    -4.4539  -4.4539  -2.1094  -2.1094  -1.8365  -1.8365  -0.6590  -0.6590
     5.0466   5.0466   7.1978   7.1978

          k =-0.5000-0.5000 0.7494 (  9946 PWs)   bands (ev):

   -49.8247 -49.8247 -21.7568 -21.7568 -21.7487 -21.7487 -21.7383 -21.7383
    -4.4518  -4.4518  -2.2579  -2.2579  -1.5730  -1.5730  -0.7995  -0.7995
     5.3670   5.3670   6.4589   6.4589

          k = 0.3333 0.1667 0.2248 (  9936 PWs)   bands (ev):

   -49.8251 -49.8243 -21.7565 -21.7545 -21.7515 -21.7447 -21.7414 -21.7373
    -5.4340  -4.0547  -2.4684  -1.8305  -1.5490  -0.7526  -0.4569  -0.2474
     5.4929   5.6361   5.9505   6.4095

          k = 0.3333 0.1667-0.0749 (  9931 PWs)   bands (ev):

   -49.8252 -49.8242 -21.7581 -21.7531 -21.7508 -21.7456 -21.7427 -21.7356
    -5.6206  -3.6443  -2.2485  -1.8338  -1.5208  -1.1677  -0.7824  -0.1991
     5.2273   5.9232   6.3412   6.6834

          k = 0.3333 0.1667 0.5246 (  9926 PWs)   bands (ev):

   -49.8249 -49.8245 -21.7565 -21.7546 -21.7499 -21.7458 -21.7408 -21.7385
    -5.1008  -4.5384  -2.7677  -1.9477  -1.0091  -0.5387  -0.4423  -0.2295
     5.3723   5.5134   5.8822   6.3411

          k =-0.5000 0.1667-0.1499 (  9928 PWs)   bands (ev):

   -49.8250 -49.8244 -21.7572 -21.7545 -21.7511 -21.7453 -21.7412 -21.7371
    -5.1938  -4.2013  -2.6136  -1.8366  -1.5212  -0.8750  -0.6469  -0.1622
     5.2482   5.6401   6.1753   6.5271

          k =-0.5000 0.1667-0.4496 (  9933 PWs)   bands (ev):

   -49.8250 -49.8244 -21.7580 -21.7535 -21.7504 -21.7459 -21.7420 -21.7366
    -5.2028  -4.1495  -2.8486  -1.6058  -1.2274  -0.8846  -0.8736  -0.3177
     5.2268   5.9272   6.2488   6.8607

          k =-0.5000 0.3333-0.0749 (  9934 PWs)   bands (ev):

   -49.8249 -49.8245 -21.7573 -21.7557 -21.7495 -21.7476 -21.7397 -21.7373
    -4.8821  -4.1636  -2.4770  -2.0706  -1.6169  -1.2636  -0.9529  -0.3573
     4.9286   5.7097   6.2915   6.8340

     the Fermi energy is     0.5801 ev

!    total energy              =    -279.14854706 Ry
     estimated scf accuracy    <          1.3E-09 Ry
     smearing contrib. (-TS)   =       0.00000000 Ry
     internal energy E=F+TS    =    -279.14854706 Ry

     The total energy is F=E-TS. E is the sum of the following terms:
     one-electron contribution =    -172.69232618 Ry
     hartree contribution      =      92.93409428 Ry
     xc contribution           =     -39.59930978 Ry
     ewald contribution        =     -90.40844891 Ry
     one-center paw contrib.   =     -69.38255647 Ry

     convergence has been achieved in   8 iterations

     Forces acting on atoms (cartesian axes, Ry/au):

     atom    1 type  1   force =     0.00000000    0.00000000    0.00000000
     atom    2 type  1   force =     0.00000000    0.00000000    0.00000000
     atom    3 type  3   force =     0.00000000    0.00000000    0.00000000
     atom    4 type  3   force =     0.00000000    0.00000000    0.00000000
     atom    5 type  2   force =    -0.00204551   -0.00298165   -0.00273091
     atom    6 type  2   force =    -0.00298165    0.00204551   -0.00273091
     atom    7 type  2   force =    -0.00298165    0.00204551    0.00273091
     atom    8 type  2   force =    -0.00204551   -0.00298165    0.00273091
     atom    9 type  2   force =     0.00204551    0.00298165   -0.00273091
     atom   10 type  2   force =     0.00204551    0.00298165    0.00273091
     atom   11 type  2   force =     0.00298165   -0.00204551    0.00273091
     atom   12 type  2   force =     0.00298165   -0.00204551   -0.00273091

     Total force =     0.012816     Total SCF correction =     0.000002


     Computing stress (Cartesian axis) and pressure

          total   stress  (Ry/bohr**3)                   (kbar)     P=       13.70
   0.00009662   0.00000000   0.00000000           14.21        0.00        0.00
   0.00000000   0.00009662   0.00000000            0.00       14.21        0.00
   0.00000000   0.00000000   0.00008619            0.00        0.00       12.68


     BFGS Geometry Optimization
     Energy error            =      0.0E+00 Ry
     Gradient error          =      3.0E-03 Ry/Bohr

     number of scf cycles    =   1
     number of bfgs steps    =   0

     energy             new  =    -279.1485470607 Ry

     new trust radius        =       0.0045312523 bohr
     new conv_thr            =       0.0000000100 Ry


ATOMIC_POSITIONS (crystal)
Al            0.8750000000        0.1250000000        0.2500000000
Al            0.1250000000        0.8750000000        0.7500000000
Na            0.3750000000        0.6250000000        0.2500000000
Na            0.6250000000        0.3750000000        0.7500000000
H             0.0637424329        0.7193421745        0.5876969984
H             0.7193421745        0.3485605688        0.0876969984
H             0.8070391729        0.9362575671        0.9123030016
H             0.6514394312        0.8070391729        0.4123030016
H             0.3485605688        0.1929608271        0.5876969984
H             0.9362575671        0.2806578255        0.4123030016
H             0.2806578255        0.6514394312        0.9123030016
H             0.1929608271        0.0637424329        0.0876969984



     Writing config-only to output data dir temp/naalh4.save/
     NEW-OLD atomic charge density approx. for the potential

     total cpu time spent up to now is        3.1 secs

     Self-consistent Calculation

     iteration #  1     ecut=    75.00 Ry     beta= 0.70
     Davidson diagonalization with overlap
     ethr =  1.00E-06,  avg # of iterations =  2.0

     Threshold (ethr) on eigenvalues was too large:
     Diagonalizing with lowered threshold

     Davidson diagonalization with overlap
     ethr =  4.19E-08,  avg # of iterations =  1.8

     total cpu time spent up to now is        3.7 secs

     total energy              =    -279.14868827 Ry
     estimated scf accuracy    <       0.00001525 Ry

     iteration #  2     ecut=    75.00 Ry     beta= 0.70
     Davidson diagonalization with overlap
     ethr =  4.77E-08,  avg # of iterations =  2.0

     total cpu time spent up to now is        3.8 secs

     total energy              =    -279.14869114 Ry
     estimated scf accuracy    <       0.00000086 Ry

     iteration #  3     ecut=    75.00 Ry     beta= 0.70
     Davidson diagonalization with overlap
     ethr =  2.70E-09,  avg # of iterations =  2.0

     total cpu time spent up to now is        4.0 secs

     total energy              =    -279.14869127 Ry
     estimated scf accuracy    <       0.00000003 Ry

     iteration #  4     ecut=    75.00 Ry     beta= 0.70
     Davidson diagonalization with overlap
     ethr =  8.91E-11,  avg # of iterations =  3.5

     total cpu time spent up to now is        4.2 secs

     End of self-consistent calculation

          k = 0.0000 0.0000 0.0000 (  9889 PWs)   bands (ev):

   -49.8199 -49.8184 -21.7531 -21.7454 -21.7454 -21.7395 -21.7395 -21.7291
    -6.2341  -2.9850  -2.2688  -1.2800  -1.2800  -0.8733  -0.8733  -0.0989
     4.7426   4.8165   5.4547   6.2832

          k = 0.0000 0.0000 0.2997 (  9928 PWs)   bands (ev):

   -49.8196 -49.8188 -21.7480 -21.7480 -21.7472 -21.7369 -21.7369 -21.7352
    -5.7802  -4.5004  -1.7320  -1.7320  -0.9721  -0.2762  -0.2106  -0.2106
     4.7947   4.9005   6.4979   6.4980

          k = 0.0000 0.1667-0.0749 (  9902 PWs)   bands (ev):

   -49.8199 -49.8185 -21.7527 -21.7461 -21.7459 -21.7392 -21.7390 -21.7296
    -6.0807  -3.2892  -2.0366  -1.6808  -1.2824  -0.9677  -0.7803  -0.0290
     4.8848   5.3385   5.6359   6.3092

          k = 0.0000 0.1667 0.2248 (  9922 PWs)   bands (ev):

   -49.8197 -49.8187 -21.7502 -21.7475 -21.7472 -21.7376 -21.7376 -21.7324
    -5.8583  -4.0452  -2.0970  -1.5537  -1.2635  -0.5440  -0.4183  -0.0823
     4.8557   5.2692   6.2006   6.3618

          k = 0.0000 0.1667-0.3747 (  9926 PWs)   bands (ev):

   -49.8194 -49.8190 -21.7496 -21.7483 -21.7445 -21.7388 -21.7366 -21.7350
    -5.4253  -4.8015  -2.2771  -1.7087  -0.6876  -0.3599  -0.1705  -0.1420
     5.0173   5.3324   5.9666   6.4244

          k = 0.0000 0.3333-0.1499 (  9933 PWs)   bands (ev):

   -49.8197 -49.8187 -21.7520 -21.7475 -21.7466 -21.7382 -21.7381 -21.7309
    -5.6627  -3.8399  -2.3466  -1.9372  -1.2414  -0.7538  -0.6577  -0.0725
     5.1831   5.7094   6.0232   6.4377

          k = 0.0000 0.3333-0.4496 (  9943 PWs)   bands (ev):

   -49.8194 -49.8190 -21.7516 -21.7478 -21.7444 -21.7398 -21.7370 -21.7329
    -5.0880  -4.7336  -2.9393  -1.4973  -0.8029  -0.6148  -0.2686  -0.2268
     5.1537   5.6150   6.0790   6.7848

          k = 0.0000-0.5000 0.2248 (  9914 PWs)   bands (ev):

   -49.8196 -49.8188 -21.7514 -21.7484 -21.7469 -21.7378 -21.7373 -21.7318
    -5.2980  -4.2687  -2.5696  -2.0212  -1.1921  -0.6527  -0.3937  -0.2409
     5.4067   5.8147   5.9850   5.9859

          k = 0.0000-0.5000 0.5246 (  9928 PWs)   bands (ev):

   -49.8196 -49.8188 -21.7525 -21.7470 -21.7463 -21.7389 -21.7377 -21.7312
    -5.3101  -4.1989  -2.8882  -1.5371  -1.1988  -0.7734  -0.5815  -0.1694
     5.2845   5.6828   6.0224   6.6328

          k = 0.1667 0.1667-0.1499 (  9925 PWs)   bands (ev):

   -49.8198 -49.8186 -21.7518 -21.7475 -21.7461 -21.7392 -21.7375 -21.7307
    -5.8757  -3.6476  -1.9223  -1.8573  -1.4653  -0.9374  -0.5879  -0.0519
     5.3152   5.3336   5.8042   6.5135

          k = 0.1667 0.1667-0.4496 (  9962 PWs)   bands (ev):

   -49.8192 -49.8192 -21.7496 -21.7494 -21.7421 -21.7416 -21.7353 -21.7350
    -5.0429  -5.0380  -2.2203  -2.1849  -0.4803  -0.3726  -0.2832  -0.2140
     5.2983   5.3646   6.0820   6.1347

          k = 0.1667 0.3333-0.2248 (  9936 PWs)   bands (ev):

   -49.8196 -49.8188 -21.7512 -21.7490 -21.7463 -21.7393 -21.7360 -21.7319
    -5.4294  -4.0470  -2.5076  -1.7671  -1.4881  -0.8552  -0.5701  -0.0973
     5.3581   5.5960   6.2572   6.4069

          k = 0.1667 0.3333 0.0749 (  9931 PWs)   bands (ev):

   -49.8197 -49.8187 -21.7527 -21.7479 -21.7453 -21.7404 -21.7371 -21.7302
    -5.6167  -3.6306  -2.2395  -1.8714  -1.4644  -1.2022  -0.8723  -0.0597
     5.2240   5.6473   6.0848   6.8869

          k = 0.1667 0.3333-0.5246 (  9926 PWs)   bands (ev):

   -49.8194 -49.8190 -21.7513 -21.7488 -21.7448 -21.7400 -21.7358 -21.7329
    -5.0929  -4.5373  -2.7980  -1.8848  -0.9157  -0.6206  -0.3855  -0.3468
     5.3641   5.7822   5.9454   6.4206

          k = 0.1667-0.5000 0.1499 (  9928 PWs)   bands (ev):

   -49.8195 -49.8189 -21.7519 -21.7488 -21.7459 -21.7397 -21.7360 -21.7316
    -5.1870  -4.2010  -2.6303  -1.7991  -1.4862  -0.9223  -0.4822  -0.3506
     5.4067   5.6496   6.1960   6.5390

          k = 0.1667-0.5000 0.4496 (  9933 PWs)   bands (ev):

   -49.8195 -49.8189 -21.7525 -21.7485 -21.7445 -21.7411 -21.7362 -21.7312
    -5.2005  -4.1327  -2.8339  -1.6449  -1.3030  -0.9985  -0.8020  -0.1033
     5.0806   5.6643   6.1486   6.4760

          k = 0.1667-0.1667-0.0000 (  9916 PWs)   bands (ev):

   -49.8198 -49.8185 -21.7531 -21.7466 -21.7452 -21.7402 -21.7384 -21.7293
    -5.9849  -3.1976  -2.0798  -1.5594  -1.4870  -1.3293  -0.8378  -0.0372
     5.4242   5.4762   5.5578   6.1199

          k = 0.1667-0.1667 0.2997 (  9925 PWs)   bands (ev):

   -49.8195 -49.8189 -21.7495 -21.7489 -21.7461 -21.7386 -21.7360 -21.7338
    -5.5543  -4.3750  -2.1347  -2.0898  -0.9160  -0.4982  -0.2999  -0.1398
     5.2463   5.4287   5.9189   6.3423

          k = 0.3333 0.3333-0.2997 (  9932 PWs)   bands (ev):

   -49.8194 -49.8190 -21.7510 -21.7506 -21.7450 -21.7410 -21.7342 -21.7326
    -4.9852  -4.2389  -2.5311  -2.2109  -1.4026  -0.9412  -0.6528  -0.4208
     5.4865   5.5899   5.8742   6.5782

          k = 0.3333 0.3333 0.0000 (  9944 PWs)   bands (ev):

   -49.8196 -49.8188 -21.7527 -21.7491 -21.7445 -21.7417 -21.7359 -21.7305
    -5.3078  -3.7200  -1.9968  -1.9392  -1.8794  -1.3586  -1.1695  -0.2420
     4.8393   6.2833   6.6873   7.0520

          k = 0.3333-0.5000 0.0749 (  9934 PWs)   bands (ev):

   -49.8194 -49.8190 -21.7521 -21.7501 -21.7443 -21.7420 -21.7345 -21.7317
    -4.8725  -4.1670  -2.5006  -2.0312  -1.5485  -1.2908  -0.9513  -0.4245
     4.9461   5.7622   6.4561   6.9723

          k = 0.3333-0.5000-0.2248 (  9938 PWs)   bands (ev):

   -49.8194 -49.8190 -21.7516 -21.7506 -21.7448 -21.7415 -21.7341 -21.7321
    -4.8652  -4.1864  -2.4724  -1.9010  -1.7373  -1.3377  -0.7996  -0.4987
     5.3702   5.5332   6.2609   6.8247

          k =-0.5000-0.5000 0.4496 (  9930 PWs)   bands (ev):

   -49.8192 -49.8192 -21.7514 -21.7514 -21.7433 -21.7433 -21.7328 -21.7328
    -4.4473  -4.4473  -2.1076  -2.1076  -1.8361  -1.8361  -0.6569  -0.6569
     5.0444   5.0444   7.1997   7.1998

          k =-0.5000-0.5000 0.7494 (  9946 PWs)   bands (ev):

   -49.8192 -49.8192 -21.7514 -21.7514 -21.7433 -21.7433 -21.7328 -21.7328
    -4.4453  -4.4453  -2.2570  -2.2570  -1.5712  -1.5712  -0.7981  -0.7981
     5.3665   5.3665   6.4560   6.4560

          k = 0.3333 0.1667 0.2248 (  9936 PWs)   bands (ev):

   -49.8196 -49.8188 -21.7511 -21.7491 -21.7462 -21.7394 -21.7360 -21.7319
    -5.4295  -4.0484  -2.4682  -1.8287  -1.5464  -0.7489  -0.4525  -0.2445
     5.4907   5.6321   5.9449   6.4074

          k = 0.3333 0.1667-0.0749 (  9931 PWs)   bands (ev):

   -49.8197 -49.8187 -21.7527 -21.7477 -21.7454 -21.7402 -21.7373 -21.7302
    -5.6164  -3.6368  -2.2471  -1.8332  -1.5187  -1.1647  -0.7776  -0.1972
     5.2250   5.9200   6.3374   6.6778

          k = 0.3333 0.1667 0.5246 (  9926 PWs)   bands (ev):

   -49.8194 -49.8190 -21.7511 -21.7492 -21.7445 -21.7404 -21.7354 -21.7331
    -5.0957  -4.5330  -2.7682  -1.9461  -1.0058  -0.5340  -0.4389  -0.2254
     5.3692   5.5075   5.8771   6.3389

          k =-0.5000 0.1667-0.1499 (  9928 PWs)   bands (ev):

   -49.8195 -49.8189 -21.7518 -21.7491 -21.7457 -21.7399 -21.7358 -21.7317
    -5.1886  -4.1959  -2.6131  -1.8348  -1.5189  -0.8719  -0.6436  -0.1582
     5.2431   5.6360   6.1726   6.5235

          k =-0.5000 0.1667-0.4496 (  9933 PWs)   bands (ev):

   -49.8195 -49.8189 -21.7526 -21.7482 -21.7450 -21.7405 -21.7366 -21.7311
    -5.1976  -4.1435  -2.8491  -1.6029  -1.2267  -0.8813  -0.8684  -0.3152
     5.2230   5.9183   6.2464   6.8616

          k =-0.5000 0.3333-0.0749 (  9934 PWs)   bands (ev):

   -49.8194 -49.8190 -21.7519 -21.7503 -21.7441 -21.7422 -21.7343 -21.7318
    -4.8764  -4.1568  -2.4768  -2.0692  -1.6148  -1.2608  -0.9521  -0.3544
     4.9252   5.7095   6.2882   6.8339

     the Fermi energy is     0.5825 ev

!    total energy              =    -279.14869128 Ry
     estimated scf accuracy    <          2.7E-09 Ry
     smearing contrib. (-TS)   =       0.00000000 Ry
     internal energy E=F+TS    =    -279.14869128 Ry

     The total energy is F=E-TS. E is the sum of the following terms:
     one-electron contribution =    -172.71268542 Ry
     hartree contribution      =      92.94583105 Ry
     xc contribution           =     -39.59452701 Ry
     ewald contribution        =     -90.40584791 Ry
     one-center paw contrib.   =     -69.38146199 Ry

     convergence has been achieved in   4 iterations

     Forces acting on atoms (cartesian axes, Ry/au):

     atom    1 type  1   force =     0.00000000    0.00000000    0.00000000
     atom    2 type  1   force =     0.00000000    0.00000000   -0.00000000
     atom    3 type  3   force =     0.00000000    0.00000000   -0.00000000
     atom    4 type  3   force =     0.00000000    0.00000000    0.00000000
     atom    5 type  2   force =    -0.00160547   -0.00217422   -0.00211531
     atom    6 type  2   force =    -0.00217422    0.00160547   -0.00211531
     atom    7 type  2   force =    -0.00217422    0.00160547    0.00211531
     atom    8 type  2   force =    -0.00160547   -0.00217422    0.00211531
     atom    9 type  2   force =     0.00160547    0.00217422   -0.00211531
     atom   10 type  2   force =     0.00160547    0.00217422    0.00211531
     atom   11 type  2   force =     0.00217422   -0.00160547    0.00211531
     atom   12 type  2   force =     0.00217422   -0.00160547   -0.00211531

     Total force =     0.009707     Total SCF correction =     0.000022


     Computing stress (Cartesian axis) and pressure

          total   stress  (Ry/bohr**3)                   (kbar)     P=       12.45
   0.00008792   0.00000000   0.00000000           12.93        0.00        0.00
   0.00000000   0.00008792   0.00000000            0.00       12.93        0.00
   0.00000000   0.00000000   0.00007816            0.00        0.00       11.50

     Energy error            =      1.4E-04 Ry
     Gradient error          =      2.2E-03 Ry/Bohr

     number of scf cycles    =   2
     number of bfgs steps    =   1

     energy             old  =    -279.1485470607 Ry
     energy             new  =    -279.1486912767 Ry

     CASE: energy            _new < energy            _old

     new trust radius        =       0.0049843776 bohr
     new conv_thr            =       0.0000000001 Ry


ATOMIC_POSITIONS (crystal)
Al            0.8750000000        0.1250000000        0.2500000000
Al            0.1250000000        0.8750000000        0.7500000000
Na            0.3750000000        0.6250000000        0.2500000000
Na            0.6250000000        0.3750000000        0.7500000000
H             0.0636406701        0.7191518799        0.5874011660
H             0.7191518799        0.3489581639        0.0874011660
H             0.8065530460        0.9363593299        0.9125988340
H             0.6510418361        0.8065530460        0.4125988340
H             0.3489581639        0.1934469540        0.5874011660
H             0.9363593299        0.2808481201        0.4125988340
H             0.2808481201        0.6510418361        0.9125988340
H             0.1934469540        0.0636406701        0.0874011660



     Writing config-only to output data dir temp/naalh4.save/
     NEW-OLD atomic charge density approx. for the potential

     total cpu time spent up to now is        4.6 secs

     Self-consistent Calculation

     iteration #  1     ecut=    75.00 Ry     beta= 0.70
     Davidson diagonalization with overlap
     ethr =  1.00E-06,  avg # of iterations =  2.0

     Threshold (ethr) on eigenvalues was too large:
     Diagonalizing with lowered threshold

     Davidson diagonalization with overlap
     ethr =  4.99E-08,  avg # of iterations =  1.7

     total cpu time spent up to now is        4.9 secs

     total energy              =    -279.14880066 Ry
     estimated scf accuracy    <       0.00001805 Ry

     iteration #  2     ecut=    75.00 Ry     beta= 0.70
     Davidson diagonalization with overlap
     ethr =  5.64E-08,  avg # of iterations =  2.0

     total cpu time spent up to now is        5.1 secs

     total energy              =    -279.14880404 Ry
     estimated scf accuracy    <       0.00000104 Ry

     iteration #  3     ecut=    75.00 Ry     beta= 0.70
     Davidson diagonalization with overlap
     ethr =  3.25E-09,  avg # of iterations =  2.0

     total cpu time spent up to now is        5.3 secs

     total energy              =    -279.14880420 Ry
     estimated scf accuracy    <       0.00000003 Ry

     iteration #  4     ecut=    75.00 Ry     beta= 0.70
     Davidson diagonalization with overlap
     ethr =  1.06E-10,  avg # of iterations =  3.2

     total cpu time spent up to now is        5.5 secs

     total energy              =    -279.14880420 Ry
     estimated scf accuracy    <          3.1E-09 Ry

     iteration #  5     ecut=    75.00 Ry     beta= 0.70
     Davidson diagonalization with overlap
     ethr =  9.72E-12,  avg # of iterations =  2.2

     total cpu time spent up to now is        5.6 secs

     total energy              =    -279.14880420 Ry
     estimated scf accuracy    <          1.6E-10 Ry

     iteration #  6     ecut=    75.00 Ry     beta= 0.70
     Davidson diagonalization with overlap
     ethr =  5.08E-13,  avg # of iterations =  4.4

     total cpu time spent up to now is        6.0 secs

     End of self-consistent calculation

          k = 0.0000 0.0000 0.0000 (  9889 PWs)   bands (ev):

   -49.8140 -49.8125 -21.7473 -21.7396 -21.7396 -21.7336 -21.7336 -21.7232
    -6.2307  -2.9735  -2.2698  -1.2772  -1.2772  -0.8700  -0.8700  -0.0948
     4.7372   4.8125   5.4538   6.2783

          k = 0.0000 0.0000 0.2997 (  9928 PWs)   bands (ev):

   -49.8136 -49.8129 -21.7422 -21.7422 -21.7413 -21.7310 -21.7310 -21.7293
    -5.7765  -4.4953  -1.7299  -1.7299  -0.9673  -0.2718  -0.2058  -0.2058
     4.7930   4.8957   6.4938   6.4938

          k = 0.0000 0.1667-0.0749 (  9902 PWs)   bands (ev):

   -49.8139 -49.8126 -21.7469 -21.7402 -21.7400 -21.7334 -21.7331 -21.7237
    -6.0771  -3.2802  -2.0360  -1.6786  -1.2796  -0.9640  -0.7765  -0.0252
     4.8805   5.3351   5.6336   6.3059

          k = 0.0000 0.1667 0.2248 (  9922 PWs)   bands (ev):

   -49.8137 -49.8127 -21.7443 -21.7417 -21.7414 -21.7318 -21.7318 -21.7265
    -5.8545  -4.0390  -2.0961  -1.5512  -1.2592  -0.5399  -0.4137  -0.0779
     4.8521   5.2658   6.1967   6.3576

          k = 0.0000 0.1667-0.3747 (  9926 PWs)   bands (ev):

   -49.8134 -49.8130 -21.7438 -21.7425 -21.7386 -21.7329 -21.7307 -21.7291
    -5.4211  -4.7966  -2.2762  -1.7065  -0.6828  -0.3558  -0.1653  -0.1365
     5.0137   5.3292   5.9603   6.4214

          k = 0.0000 0.3333-0.1499 (  9933 PWs)   bands (ev):

   -49.8137 -49.8127 -21.7461 -21.7417 -21.7408 -21.7324 -21.7323 -21.7250
    -5.6584  -3.8330  -2.3460  -1.9358  -1.2380  -0.7494  -0.6533  -0.0688
     5.1792   5.7036   6.0166   6.4343

          k = 0.0000 0.3333-0.4496 (  9943 PWs)   bands (ev):

   -49.8134 -49.8130 -21.7457 -21.7420 -21.7385 -21.7339 -21.7311 -21.7271
    -5.0824  -4.7287  -2.9402  -1.4944  -0.8006  -0.6091  -0.2633  -0.2218
     5.1479   5.6067   6.0762   6.7777

          k = 0.0000-0.5000 0.2248 (  9914 PWs)   bands (ev):

   -49.8136 -49.8129 -21.7456 -21.7426 -21.7411 -21.7319 -21.7315 -21.7259
    -5.2926  -4.2637  -2.5685  -2.0203  -1.1882  -0.6483  -0.3909  -0.2351
     5.3985   5.8080   5.9813   5.9817

          k = 0.0000-0.5000 0.5246 (  9928 PWs)   bands (ev):

   -49.8136 -49.8129 -21.7467 -21.7412 -21.7405 -21.7331 -21.7319 -21.7253
    -5.3047  -4.1932  -2.8885  -1.5357  -1.1950  -0.7681  -0.5773  -0.1655
     5.2781   5.6751   6.0174   6.6305

          k = 0.1667 0.1667-0.1499 (  9925 PWs)   bands (ev):

   -49.8138 -49.8127 -21.7459 -21.7417 -21.7403 -21.7334 -21.7316 -21.7248
    -5.8719  -3.6399  -1.9214  -1.8559  -1.4616  -0.9341  -0.5829  -0.0486
     5.3128   5.3296   5.8009   6.5102

          k = 0.1667 0.1667-0.4496 (  9962 PWs)   bands (ev):

   -49.8132 -49.8132 -21.7438 -21.7436 -21.7362 -21.7357 -21.7294 -21.7292
    -5.0381  -5.0332  -2.2192  -2.1838  -0.4758  -0.3678  -0.2784  -0.2086
     5.2947   5.3578   6.0772   6.1321

          k = 0.1667 0.3333-0.2248 (  9936 PWs)   bands (ev):

   -49.8136 -49.8129 -21.7453 -21.7432 -21.7404 -21.7335 -21.7302 -21.7260
    -5.4247  -4.0402  -2.5075  -1.7653  -1.4853  -0.8515  -0.5661  -0.0931
     5.3512   5.5931   6.2536   6.4046

          k = 0.1667 0.3333 0.0749 (  9931 PWs)   bands (ev):

   -49.8137 -49.8127 -21.7468 -21.7421 -21.7394 -21.7346 -21.7312 -21.7243
    -5.6123  -3.6225  -2.2384  -1.8707  -1.4624  -1.1989  -0.8677  -0.0567
     5.2201   5.6439   6.0818   6.8848

          k = 0.1667 0.3333-0.5246 (  9926 PWs)   bands (ev):

   -49.8134 -49.8130 -21.7455 -21.7430 -21.7390 -21.7342 -21.7299 -21.7271
    -5.0875  -4.5315  -2.7985  -1.8830  -0.9120  -0.6164  -0.3811  -0.3424
     5.3554   5.7777   5.9421   6.4171

          k = 0.1667-0.5000 0.1499 (  9928 PWs)   bands (ev):

   -49.8136 -49.8129 -21.7461 -21.7430 -21.7401 -21.7339 -21.7302 -21.7257
    -5.1815  -4.1953  -2.6296  -1.7972  -1.4838  -0.9192  -0.4776  -0.3472
     5.4012   5.6433   6.1939   6.5365

          k = 0.1667-0.5000 0.4496 (  9933 PWs)   bands (ev):

   -49.8136 -49.8129 -21.7467 -21.7427 -21.7387 -21.7352 -21.7303 -21.7254
    -5.1951  -4.1262  -2.8346  -1.6422  -1.3016  -0.9936  -0.7987  -0.0995
     5.0753   5.6595   6.1463   6.4722

          k = 0.1667-0.1667-0.0000 (  9916 PWs)   bands (ev):

   -49.8139 -49.8126 -21.7472 -21.7407 -21.7394 -21.7343 -21.7326 -21.7234
    -5.9811  -3.1874  -2.0800  -1.5574  -1.4851  -1.3266  -0.8327  -0.0342
     5.4226   5.4726   5.5542   6.1163

          k = 0.1667-0.1667 0.2997 (  9925 PWs)   bands (ev):

   -49.8136 -49.8129 -21.7437 -21.7431 -21.7403 -21.7327 -21.7302 -21.7279
    -5.5501  -4.3692  -2.1334  -2.0888  -0.9113  -0.4941  -0.2947  -0.1355
     5.2410   5.4266   5.9151   6.3379

          k = 0.3333 0.3333-0.2997 (  9932 PWs)   bands (ev):

   -49.8134 -49.8130 -21.7452 -21.7447 -21.7392 -21.7351 -21.7284 -21.7268
    -4.9796  -4.2319  -2.5308  -2.2107  -1.3991  -0.9376  -0.6505  -0.4176
     5.4831   5.5883   5.8687   6.5768

          k = 0.3333 0.3333 0.0000 (  9944 PWs)   bands (ev):

   -49.8136 -49.8128 -21.7468 -21.7432 -21.7387 -21.7359 -21.7300 -21.7246
    -5.3028  -3.7115  -1.9947  -1.9384  -1.8773  -1.3586  -1.1661  -0.2391
     4.8355   6.2841   6.6878   7.0498

          k = 0.3333-0.5000 0.0749 (  9934 PWs)   bands (ev):

   -49.8134 -49.8130 -21.7462 -21.7443 -21.7385 -21.7361 -21.7286 -21.7259
    -4.8664  -4.1599  -2.5002  -2.0296  -1.5466  -1.2880  -0.9500  -0.4215
     4.9423   5.7618   6.4522   6.9718

          k = 0.3333-0.5000-0.2248 (  9938 PWs)   bands (ev):

   -49.8134 -49.8130 -21.7457 -21.7448 -21.7390 -21.7357 -21.7282 -21.7262
    -4.8590  -4.1795  -2.4717  -1.8988  -1.7356  -1.3363  -0.7973  -0.4961
     5.3693   5.5292   6.2611   6.8219

          k =-0.5000-0.5000 0.4496 (  9930 PWs)   bands (ev):

   -49.8132 -49.8132 -21.7456 -21.7456 -21.7375 -21.7375 -21.7270 -21.7270
    -4.4404  -4.4404  -2.1058  -2.1058  -1.8357  -1.8357  -0.6547  -0.6547
     5.0419   5.0419   7.2017   7.2017

          k =-0.5000-0.5000 0.7494 (  9946 PWs)   bands (ev):

   -49.8132 -49.8132 -21.7456 -21.7456 -21.7375 -21.7375 -21.7270 -21.7270
    -4.4383  -4.4383  -2.2562  -2.2562  -1.5691  -1.5691  -0.7967  -0.7967
     5.3659   5.3659   6.4526   6.4526

          k = 0.3333 0.1667 0.2248 (  9936 PWs)   bands (ev):

   -49.8136 -49.8129 -21.7453 -21.7433 -21.7404 -21.7335 -21.7301 -21.7260
    -5.4248  -4.0416  -2.4681  -1.8270  -1.5437  -0.7448  -0.4477  -0.2414
     5.4882   5.6277   5.9386   6.4051

          k = 0.3333 0.1667-0.0749 (  9931 PWs)   bands (ev):

   -49.8137 -49.8127 -21.7469 -21.7419 -21.7396 -21.7344 -21.7314 -21.7243
    -5.6120  -3.6289  -2.2457  -1.8328  -1.5166  -1.1616  -0.7723  -0.1950
     5.2223   5.9166   6.3332   6.6716

          k = 0.3333 0.1667 0.5246 (  9926 PWs)   bands (ev):

   -49.8134 -49.8130 -21.7453 -21.7434 -21.7386 -21.7346 -21.7295 -21.7272
    -5.0904  -4.5272  -2.7688  -1.9443  -1.0023  -0.5290  -0.4351  -0.2209
     5.3656   5.5010   5.8713   6.3363

          k =-0.5000 0.1667-0.1499 (  9928 PWs)   bands (ev):

   -49.8136 -49.8129 -21.7459 -21.7433 -21.7399 -21.7341 -21.7299 -21.7258
    -5.1830  -4.1902  -2.6125  -1.8330  -1.5164  -0.8685  -0.6400  -0.1539
     5.2374   5.6313   6.1694   6.5195

          k =-0.5000 0.1667-0.4496 (  9933 PWs)   bands (ev):

   -49.8136 -49.8129 -21.7468 -21.7423 -21.7392 -21.7347 -21.7307 -21.7252
    -5.1921  -4.1371  -2.8496  -1.5999  -1.2260  -0.8777  -0.8627  -0.3124
     5.2185   5.9083   6.2438   6.8626

          k =-0.5000 0.3333-0.0749 (  9934 PWs)   bands (ev):

   -49.8134 -49.8130 -21.7461 -21.7445 -21.7383 -21.7364 -21.7284 -21.7260
    -4.8704  -4.1495  -2.4767  -2.0678  -1.6126  -1.2578  -0.9513  -0.3512
     4.9214   5.7093   6.2844   6.8338

     the Fermi energy is     0.5850 ev

!    total energy              =    -279.14880420 Ry
     estimated scf accuracy    <          8.6E-11 Ry
     smearing contrib. (-TS)   =       0.00000000 Ry
     internal energy E=F+TS    =    -279.14880420 Ry

     The total energy is F=E-TS. E is the sum of the following terms:
     one-electron contribution =    -172.73487288 Ry
     hartree contribution      =      92.95876388 Ry
     xc contribution           =     -39.58937874 Ry
     ewald contribution        =     -90.40303221 Ry
     one-center paw contrib.   =     -69.38028425 Ry

     convergence has been achieved in   6 iterations

     Forces acting on atoms (cartesian axes, Ry/au):

     atom    1 type  1   force =     0.00000000    0.00000000   -0.00000000
     atom    2 type  1   force =     0.00000000    0.00000000    0.00000000
     atom    3 type  3   force =     0.00000000    0.00000000   -0.00000000
     atom    4 type  3   force =     0.00000000    0.00000000    0.00000000
     atom    5 type  2   force =    -0.00112577   -0.00129730   -0.00144182
     atom    6 type  2   force =    -0.00129730    0.00112577   -0.00144182
     atom    7 type  2   force =    -0.00129730    0.00112577    0.00144182
     atom    8 type  2   force =    -0.00112577   -0.00129730    0.00144182
     atom    9 type  2   force =     0.00112577    0.00129730   -0.00144182
     atom   10 type  2   force =     0.00112577    0.00129730    0.00144182
     atom   11 type  2   force =     0.00129730   -0.00112577    0.00144182
     atom   12 type  2   force =     0.00129730   -0.00112577   -0.00144182

     Total force =     0.006343     Total SCF correction =     0.000005


     Computing stress (Cartesian axis) and pressure

          total   stress  (Ry/bohr**3)                   (kbar)     P=       11.16
   0.00007893  -0.00000000   0.00000000           11.61       -0.00        0.00
   0.00000000   0.00007893   0.00000000            0.00       11.61        0.00
   0.00000000   0.00000000   0.00006979            0.00        0.00       10.27

     Energy error            =      1.1E-04 Ry
     Gradient error          =      1.4E-03 Ry/Bohr

     number of scf cycles    =   3
     number of bfgs steps    =   2

     energy             old  =    -279.1486912767 Ry
     energy             new  =    -279.1488042023 Ry

     CASE: energy            _new < energy            _old

     new trust radius        =       0.0074765663 bohr
     new conv_thr            =       0.0000000001 Ry


ATOMIC_POSITIONS (crystal)
Al            0.8750000000        0.1250000000        0.2500000000
Al            0.1250000000        0.8750000000        0.7500000000
Na            0.3750000000        0.6250000000        0.2500000000
Na            0.6250000000        0.3750000000        0.7500000000
H             0.0634757715        0.7189029040        0.5869441028
H             0.7189029040        0.3495801257        0.0869441028
H             0.8058470067        0.9365242285        0.9130558972
H             0.6504198743        0.8058470067        0.4130558972
H             0.3495801257        0.1941529933        0.5869441028
H             0.9365242285        0.2810970960        0.4130558972
H             0.2810970960        0.6504198743        0.9130558972
H             0.1941529933        0.0634757715        0.0869441028



     Writing config-only to output data dir temp/naalh4.save/
     NEW-OLD atomic charge density approx. for the potential

     total cpu time spent up to now is        6.4 secs

     Self-consistent Calculation

     iteration #  1     ecut=    75.00 Ry     beta= 0.70
     Davidson diagonalization with overlap
     ethr =  1.00E-06,  avg # of iterations =  2.8

     total cpu time spent up to now is        6.6 secs

     total energy              =    -279.14887879 Ry
     estimated scf accuracy    <       0.00003801 Ry

     iteration #  2     ecut=    75.00 Ry     beta= 0.70
     Davidson diagonalization with overlap
     ethr =  1.19E-07,  avg # of iterations =  2.0

     total cpu time spent up to now is        6.8 secs

     total energy              =    -279.14888580 Ry
     estimated scf accuracy    <       0.00000163 Ry

     iteration #  3     ecut=    75.00 Ry     beta= 0.70
     Davidson diagonalization with overlap
     ethr =  5.09E-09,  avg # of iterations =  2.0

     total cpu time spent up to now is        7.0 secs

     total energy              =    -279.14888604 Ry
     estimated scf accuracy    <       0.00000008 Ry

     iteration #  4     ecut=    75.00 Ry     beta= 0.70
     Davidson diagonalization with overlap
     ethr =  2.40E-10,  avg # of iterations =  3.8

     total cpu time spent up to now is        7.2 secs

     total energy              =    -279.14888606 Ry
     estimated scf accuracy    <          6.3E-09 Ry

     iteration #  5     ecut=    75.00 Ry     beta= 0.70
     Davidson diagonalization with overlap
     ethr =  1.97E-11,  avg # of iterations =  2.0

     total cpu time spent up to now is        7.4 secs

     total energy              =    -279.14888607 Ry
     estimated scf accuracy    <          2.3E-10 Ry

     iteration #  6     ecut=    75.00 Ry     beta= 0.70
     Davidson diagonalization with overlap
     ethr =  7.25E-13,  avg # of iterations =  3.5

     total cpu time spent up to now is        7.6 secs

     total energy              =    -279.14888607 Ry
     estimated scf accuracy    <          1.1E-10 Ry

     iteration #  7     ecut=    75.00 Ry     beta= 0.70
     Davidson diagonalization with overlap
     ethr =  3.56E-13,  avg # of iterations =  2.0

     total cpu time spent up to now is        7.8 secs

     End of self-consistent calculation

          k = 0.0000 0.0000 0.0000 (  9889 PWs)   bands (ev):

   -49.8052 -49.8037 -21.7386 -21.7310 -21.7310 -21.7250 -21.7250 -21.7145
    -6.2258  -2.9559  -2.2715  -1.2729  -1.2729  -0.8652  -0.8652  -0.0884
     4.7293   4.8070   5.4522   6.2706

          k = 0.0000 0.0000 0.2997 (  9928 PWs)   bands (ev):

   -49.8048 -49.8041 -21.7336 -21.7336 -21.7327 -21.7224 -21.7224 -21.7206
    -5.7710  -4.4877  -1.7267  -1.7267  -0.9600  -0.2649  -0.1987  -0.1987
     4.7906   4.8883   6.4878   6.4878

          k = 0.0000 0.1667-0.0749 (  9902 PWs)   bands (ev):

   -49.8051 -49.8038 -21.7382 -21.7316 -21.7315 -21.7248 -21.7245 -21.7150
    -6.0718  -3.2667  -2.0353  -1.6751  -1.2752  -0.9584  -0.7708  -0.0193
     4.8743   5.3301   5.6303   6.3009

          k = 0.0000 0.1667 0.2248 (  9922 PWs)   bands (ev):

   -49.8050 -49.8040 -21.7357 -21.7331 -21.7328 -21.7232 -21.7232 -21.7178
    -5.8490  -4.0298  -2.0947  -1.5475  -1.2527  -0.5336  -0.4067  -0.0712
     4.8467   5.2609   6.1910   6.3513

          k = 0.0000 0.1667-0.3747 (  9926 PWs)   bands (ev):

   -49.8046 -49.8043 -21.7352 -21.7339 -21.7299 -21.7242 -21.7221 -21.7205
    -5.4148  -4.7893  -2.2748  -1.7031  -0.6756  -0.3494  -0.1573  -0.1281
     5.0081   5.3243   5.9507   6.4168

          k = 0.0000 0.3333-0.1499 (  9933 PWs)   bands (ev):

   -49.8050 -49.8039 -21.7375 -21.7331 -21.7322 -21.7238 -21.7236 -21.7163
    -5.6520  -3.8227  -2.3450  -1.9339  -1.2329  -0.7425  -0.6466  -0.0631
     5.1734   5.6951   6.0064   6.4297

          k = 0.0000 0.3333-0.4496 (  9943 PWs)   bands (ev):

   -49.8046 -49.8043 -21.7371 -21.7334 -21.7299 -21.7253 -21.7225 -21.7184
    -5.0741  -4.7213  -2.9414  -1.4902  -0.7974  -0.6006  -0.2553  -0.2140
     5.1388   5.5940   6.0722   6.7673

          k = 0.0000-0.5000 0.2248 (  9914 PWs)   bands (ev):

   -49.8048 -49.8041 -21.7370 -21.7340 -21.7325 -21.7233 -21.7229 -21.7173
    -5.2845  -4.2563  -2.5666  -2.0192  -1.1824  -0.6416  -0.3865  -0.2263
     5.3861   5.7978   5.9753   5.9758

          k = 0.0000-0.5000 0.5246 (  9928 PWs)   bands (ev):

   -49.8048 -49.8041 -21.7380 -21.7326 -21.7319 -21.7245 -21.7233 -21.7167
    -5.2968  -4.1846  -2.8889  -1.5337  -1.1893  -0.7602  -0.5710  -0.1595
     5.2685   5.6631   6.0103   6.6273

          k = 0.1667 0.1667-0.1499 (  9925 PWs)   bands (ev):

   -49.8050 -49.8039 -21.7373 -21.7331 -21.7317 -21.7248 -21.7230 -21.7161
    -5.8662  -3.6285  -1.9201  -1.8538  -1.4561  -0.9293  -0.5753  -0.0434
     5.3089   5.3242   5.7962   6.5053

          k = 0.1667 0.1667-0.4496 (  9962 PWs)   bands (ev):

   -49.8045 -49.8045 -21.7352 -21.7350 -21.7276 -21.7271 -21.7208 -21.7206
    -5.0310  -5.0261  -2.2175  -2.1822  -0.4690  -0.3606  -0.2711  -0.2002
     5.2894   5.3475   6.0701   6.1282

          k = 0.1667 0.3333-0.2248 (  9936 PWs)   bands (ev):

   -49.8048 -49.8041 -21.7367 -21.7346 -21.7319 -21.7249 -21.7215 -21.7173
    -5.4178  -4.0301  -2.5072  -1.7627  -1.4811  -0.8458  -0.5599  -0.0868
     5.3409   5.5887   6.2481   6.4015

          k = 0.1667 0.3333 0.0749 (  9931 PWs)   bands (ev):

   -49.8050 -49.8039 -21.7382 -21.7335 -21.7309 -21.7260 -21.7226 -21.7156
    -5.6058  -3.6104  -2.2365  -1.8700  -1.4594  -1.1938  -0.8607  -0.0522
     5.2140   5.6390   6.0774   6.8816

          k = 0.1667 0.3333-0.5246 (  9926 PWs)   bands (ev):

   -49.8046 -49.8043 -21.7369 -21.7344 -21.7304 -21.7256 -21.7213 -21.7184
    -5.0796  -4.5229  -2.7992  -1.8804  -0.9067  -0.6101  -0.3743  -0.3358
     5.3421   5.7710   5.9375   6.4120

          k = 0.1667-0.5000 0.1499 (  9928 PWs)   bands (ev):

   -49.8048 -49.8041 -21.7375 -21.7344 -21.7315 -21.7253 -21.7215 -21.7170
    -5.1732  -4.1868  -2.6285  -1.7945  -1.4802  -0.9143  -0.4705  -0.3422
     5.3926   5.6340   6.1911   6.5329

          k = 0.1667-0.5000 0.4496 (  9933 PWs)   bands (ev):

   -49.8048 -49.8041 -21.7380 -21.7341 -21.7301 -21.7266 -21.7217 -21.7167
    -5.1870  -4.1164  -2.8354  -1.6381  -1.2998  -0.9860  -0.7936  -0.0938
     5.0673   5.6522   6.1433   6.4664

          k = 0.1667-0.1667-0.0000 (  9916 PWs)   bands (ev):

   -49.8051 -49.8038 -21.7386 -21.7321 -21.7308 -21.7257 -21.7240 -21.7148
    -5.9756  -3.1719  -2.0806  -1.5543  -1.4821  -1.3226  -0.8252  -0.0297
     5.4201   5.4676   5.5491   6.1109

          k = 0.1667-0.1667 0.2997 (  9925 PWs)   bands (ev):

   -49.8048 -49.8041 -21.7351 -21.7345 -21.7317 -21.7241 -21.7216 -21.7192
    -5.5439  -4.3606  -2.1315  -2.0872  -0.9043  -0.4880  -0.2868  -0.1289
     5.2328   5.4235   5.9095   6.3311

          k = 0.3333 0.3333-0.2997 (  9932 PWs)   bands (ev):

   -49.8046 -49.8043 -21.7366 -21.7361 -21.7306 -21.7265 -21.7197 -21.7181
    -4.9713  -4.2214  -2.5304  -2.2102  -1.3940  -0.9321  -0.6470  -0.4130
     5.4781   5.5860   5.8603   6.5749

          k = 0.3333 0.3333 0.0000 (  9944 PWs)   bands (ev):

   -49.8048 -49.8041 -21.7382 -21.7346 -21.7301 -21.7273 -21.7214 -21.7159
    -5.2954  -3.6988  -1.9916  -1.9370  -1.8743  -1.3586  -1.1608  -0.2349
     4.8297   6.2858   6.6885   7.0460

          k = 0.3333-0.5000 0.0749 (  9934 PWs)   bands (ev):

   -49.8046 -49.8043 -21.7376 -21.7357 -21.7299 -21.7275 -21.7200 -21.7172
    -4.8574  -4.1492  -2.4997  -2.0272  -1.5436  -1.2836  -0.9482  -0.4170
     4.9365   5.7613   6.4461   6.9711

          k = 0.3333-0.5000-0.2248 (  9938 PWs)   bands (ev):

   -49.8046 -49.8043 -21.7371 -21.7362 -21.7304 -21.7271 -21.7196 -21.7175
    -4.8499  -4.1692  -2.4707  -1.8955  -1.7328  -1.3340  -0.7938  -0.4922
     5.3680   5.5230   6.2615   6.8172

          k =-0.5000-0.5000 0.4496 (  9930 PWs)   bands (ev):

   -49.8044 -49.8044 -21.7370 -21.7370 -21.7289 -21.7289 -21.7183 -21.7183
    -4.4301  -4.4301  -2.1030  -2.1030  -1.8348  -1.8348  -0.6515  -0.6515
     5.0382   5.0382   7.2045   7.2045

          k =-0.5000-0.5000 0.7494 (  9946 PWs)   bands (ev):

   -49.8044 -49.8044 -21.7370 -21.7370 -21.7289 -21.7289 -21.7183 -21.7183
    -4.4280  -4.4280  -2.2549  -2.2549  -1.5658  -1.5658  -0.7948  -0.7948
     5.3652   5.3652   6.4473   6.4473

          k = 0.3333 0.1667 0.2248 (  9936 PWs)   bands (ev):

   -49.8048 -49.8041 -21.7366 -21.7347 -21.7318 -21.7249 -21.7215 -21.7173
    -5.4179  -4.0315  -2.4678  -1.8243  -1.5396  -0.7386  -0.4404  -0.2367
     5.4843   5.6210   5.9292   6.4017

          k = 0.3333 0.1667-0.0749 (  9931 PWs)   bands (ev):

   -49.8050 -49.8039 -21.7383 -21.7333 -21.7310 -21.7258 -21.7228 -21.7156
    -5.6055  -3.6169  -2.2435  -1.8324  -1.5132  -1.1567  -0.7643  -0.1918
     5.2182   5.9118   6.3267   6.6626

          k = 0.3333 0.1667 0.5246 (  9926 PWs)   bands (ev):

   -49.8046 -49.8043 -21.7367 -21.7348 -21.7300 -21.7260 -21.7209 -21.7186
    -5.0825  -4.5185  -2.7696  -1.9416  -0.9971  -0.5214  -0.4292  -0.2142
     5.3601   5.4911   5.8624   6.3327

          k =-0.5000 0.1667-0.1499 (  9928 PWs)   bands (ev):

   -49.8048 -49.8041 -21.7373 -21.7347 -21.7313 -21.7255 -21.7213 -21.7171
    -5.1748  -4.1816  -2.6115  -1.8306  -1.5126  -0.8633  -0.6345  -0.1475
     5.2287   5.6242   6.1647   6.5139

          k =-0.5000 0.1667-0.4496 (  9933 PWs)   bands (ev):

   -49.8048 -49.8041 -21.7382 -21.7338 -21.7306 -21.7261 -21.7221 -21.7166
    -5.1840  -4.1275  -2.8503  -1.5953  -1.2252  -0.8722  -0.8540  -0.3082
     5.2115   5.8933   6.2406   6.8641

          k =-0.5000 0.3333-0.0749 (  9934 PWs)   bands (ev):

   -49.8046 -49.8043 -21.7375 -21.7359 -21.7297 -21.7278 -21.7198 -21.7173
    -4.8615  -4.1387  -2.4764  -2.0657  -1.6091  -1.2530  -0.9500  -0.3465
     4.9156   5.7092   6.2786   6.8334

     the Fermi energy is     0.5885 ev

!    total energy              =    -279.14888607 Ry
     estimated scf accuracy    <          2.5E-12 Ry
     smearing contrib. (-TS)   =       0.00000000 Ry
     internal energy E=F+TS    =    -279.14888607 Ry

     The total energy is F=E-TS. E is the sum of the following terms:
     one-electron contribution =    -172.76743195 Ry
     hartree contribution      =      92.97774923 Ry
     xc contribution           =     -39.58171273 Ry
     ewald contribution        =     -90.39896265 Ry
     one-center paw contrib.   =     -69.37852796 Ry

     convergence has been achieved in   7 iterations

     Forces acting on atoms (cartesian axes, Ry/au):

     atom    1 type  1   force =     0.00000000    0.00000000    0.00000000
     atom    2 type  1   force =     0.00000000    0.00000000    0.00000000
     atom    3 type  3   force =     0.00000000    0.00000000    0.00000000
     atom    4 type  3   force =     0.00000000    0.00000000    0.00000000
     atom    5 type  2   force =    -0.00042132   -0.00001847   -0.00044597
     atom    6 type  2   force =    -0.00001847    0.00042132   -0.00044597
     atom    7 type  2   force =    -0.00001847    0.00042132    0.00044597
     atom    8 type  2   force =    -0.00042132   -0.00001847    0.00044597
     atom    9 type  2   force =     0.00042132    0.00001847   -0.00044597
     atom   10 type  2   force =     0.00042132    0.00001847    0.00044597
     atom   11 type  2   force =     0.00001847   -0.00042132    0.00044597
     atom   12 type  2   force =     0.00001847   -0.00042132   -0.00044597

     Total force =     0.001736     Total SCF correction =     0.000001


     Computing stress (Cartesian axis) and pressure

          total   stress  (Ry/bohr**3)                   (kbar)     P=        9.24
   0.00006559   0.00000000   0.00000000            9.65        0.00        0.00
   0.00000000   0.00006559   0.00000000            0.00        9.65        0.00
   0.00000000   0.00000000   0.00005720            0.00        0.00        8.41

     Energy error            =      8.2E-05 Ry
     Gradient error          =      4.5E-04 Ry/Bohr

     bfgs converged in   4 scf cycles and   3 bfgs steps
     (criteria: energy <  1.0E-04 Ry, force <  1.0E-03 Ry/Bohr)

     End of BFGS Geometry Optimization

     Final energy             =    -279.1488860654 Ry

     File temp/naalh4.bfgs deleted, as requested
Begin final coordinates

ATOMIC_POSITIONS (crystal)
Al            0.8750000000        0.1250000000        0.2500000000
Al            0.1250000000        0.8750000000        0.7500000000
Na            0.3750000000        0.6250000000        0.2500000000
Na            0.6250000000        0.3750000000        0.7500000000
H             0.0634757715        0.7189029040        0.5869441028
H             0.7189029040        0.3495801257        0.0869441028
H             0.8058470067        0.9365242285        0.9130558972
H             0.6504198743        0.8058470067        0.4130558972
H             0.3495801257        0.1941529933        0.5869441028
H             0.9365242285        0.2810970960        0.4130558972
H             0.2810970960        0.6504198743        0.9130558972
H             0.1941529933        0.0634757715        0.0869441028
End final coordinates


 
     init_run     :      0.36s CPU      0.55s WALL (       1 calls)
     electrons    :      5.58s CPU      5.85s WALL (       4 calls)
     update_pot   :      0.28s CPU      0.28s WALL (       3 calls)
     forces       :      0.27s CPU      0.27s WALL (       4 calls)
     stress       :      0.53s CPU      0.54s WALL (       4 calls)

     Called by init_run:
     wfcinit      :      0.06s CPU      0.10s WALL (       1 calls)
     potinit      :      0.08s CPU      0.13s WALL (       1 calls)
     hinit0       :      0.05s CPU      0.10s WALL (       1 calls)

     Called by electrons:
     c_bands      :      3.64s CPU      3.80s WALL (      27 calls)
     sum_band     :      0.72s CPU      0.74s WALL (      27 calls)
     v_of_rho     :      0.13s CPU      0.14s WALL (      29 calls)
     newd         :      0.16s CPU      0.17s WALL (      29 calls)
     PAW_pot      :      1.11s CPU      1.14s WALL (      32 calls)
     mix_rho      :      0.03s CPU      0.03s WALL (      27 calls)

     Called by c_bands:
     init_us_2    :      0.07s CPU      0.07s WALL (     528 calls)
     init_us_2:cp :      0.07s CPU      0.07s WALL (     528 calls)
     cegterg      :      3.06s CPU      3.17s WALL (     216 calls)

     Called by *egterg:
     cdiaghg      :      0.35s CPU      0.41s WALL (     823 calls)
     h_psi        :      2.43s CPU      2.52s WALL (     871 calls)
     s_psi        :      0.05s CPU      0.05s WALL (     871 calls)
     g_psi        :      0.01s CPU      0.01s WALL (     647 calls)

     Called by h_psi:
     h_psi:calbec :      0.12s CPU      0.13s WALL (     871 calls)
     vloc_psi     :      2.24s CPU      2.32s WALL (     871 calls)
     add_vuspsi   :      0.06s CPU      0.06s WALL (     871 calls)

     General routines
     calbec       :      0.19s CPU      0.20s WALL (    1271 calls)
     fft          :      0.10s CPU      0.15s WALL (     474 calls)
     ffts         :      0.01s CPU      0.03s WALL (      56 calls)
     fftw         :      2.50s CPU      2.58s WALL (   26882 calls)
     interpolate  :      0.01s CPU      0.04s WALL (      29 calls)
 
     Parallel routines
 
     PWSCF        :      7.39s CPU      8.04s WALL

 
   This run was terminated on:  12:18: 6  31Oct2023            

=------------------------------------------------------------------------------=
   JOB DONE.
=------------------------------------------------------------------------------=
Job execution finished at: Tue Oct 31 12:18:06 IST 2023
