==========================================
SLURM_CLUSTER_NAME = paramganga
SLURM_ARRAY_JOB_ID = 
SLURM_ARRAY_TASK_ID = 
SLURM_ARRAY_TASK_COUNT = 
SLURM_ARRAY_TASK_MAX = 
SLURM_ARRAY_TASK_MIN = 
SLURM_JOB_ACCOUNT = iitr
SLURM_JOB_ID = 173805
SLURM_JOB_NAME = 19280
SLURM_JOB_NODELIST = cn[147-149]
SLURM_JOB_USER = garima.iitr
SLURM_JOB_UID = 38339
SLURM_JOB_PARTITION = small
SLURM_TASK_PID = 32178
SLURM_SUBMIT_DIR = /home/garima.iitr/.cache/.es/compmat/kh
SLURM_CPUS_ON_NODE = 48
SLURM_NTASKS = 144
SLURM_TASK_PID = 32178
==========================================
cn147
 
:: initializing oneAPI environment ...
   slurm_script: BASH_VERSION = 4.2.46(2)-release
   args: Using "$@" for setvars.sh arguments: 
:: advisor -- latest
:: ccl -- latest
:: clck -- latest
:: compiler -- latest
:: dal -- latest
:: debugger -- latest
:: dev-utilities -- latest
:: dnnl -- latest
:: dpcpp-ct -- latest
:: dpl -- latest
:: inspector -- latest
:: intelpython -- latest
:: ipp -- latest
:: ippcp -- latest
:: ipp -- latest
:: itac -- latest
:: mkl -- latest
:: mpi -- latest
:: tbb -- latest
:: vpl -- latest
:: vtune -- latest
:: oneAPI environment initialized ::
 
Job execution start: Mon Nov 27 17:21:16 IST 2023
Job submitted by garima.iitr
The job ID is:173805

     Program PWSCF v.7.1 starts on 27Nov2023 at 17:21:20 

     This program is part of the open-source Quantum ESPRESSO suite
     for quantum simulation of materials; please cite
         "P. Giannozzi et al., J. Phys.:Condens. Matter 21 395502 (2009);
         "P. Giannozzi et al., J. Phys.:Condens. Matter 29 465901 (2017);
         "P. Giannozzi et al., J. Chem. Phys. 152 154105 (2020);
          URL http://www.quantum-espresso.org", 
     in publications or presentations arising from this work. More details at
     http://www.quantum-espresso.org/quote

     Parallel version (MPI & OpenMP), running on     144 processor cores
     Number of MPI processes:               144
     Threads/MPI process:                     1

     MPI processes distributed on     3 nodes
     169634 MiB available memory on the printing compute node when the environment starts
 
     Reading input from kh.in

     Current dimensions of program PWSCF are:
     Max number of different atomic species (ntypx) = 10
     Max number of k-points (npk) =  40000
     Max angular momentum in pseudopotentials (lmaxx) =  4
     Message from routine volume:
     axis vectors are left-handed
     file K.pbe-spn-kjpaw_psl.1.0.0.UPF: wavefunction(s)  3S renormalized

     IMPORTANT: XC functional enforced from input :
     Exchange-correlation= PBE
                           (   1   4   3   4   0   0   0)
     Any further DFT definition will be discarded
     Please, verify this is what you really want

     Message from routine setup:
     using ibrav=0 with symmetry is DISCOURAGED, use correct ibrav instead
 
     K-points division:     npool     =       8
     R & G space division:  proc/nbgrp/npool/nimage =      18
     Subspace diagonalization in iterative solution of the eigenvalue problem:
     a serial algorithm will be used

 
     Parallelization info
     --------------------
     sticks:   dense  smooth     PW     G-vecs:    dense   smooth      PW
     Min          82      65     19                 2105     1496     236
     Max          85      67     20                 2108     1497     239
     Sum        1495    1189    349                37917    26933    4285
 
     Using Slab Decomposition
 


     bravais-lattice index     =            0
     lattice parameter (alat)  =      10.7195  a.u.
     unit-cell volume          =     307.9358 (a.u.)^3
     number of atoms/cell      =            2
     number of atomic types    =            2
     number of electrons       =        10.00
     number of Kohn-Sham states=            9
     kinetic-energy cutoff     =      75.0000  Ry
     charge density cutoff     =     375.0000  Ry
     scf convergence threshold =      1.0E-08
     mixing beta               =       0.7000
     number of iterations used =            8  plain     mixing
     energy convergence thresh.=      1.0E-04
     force convergence thresh. =      1.0E-03
     press convergence thresh. =      5.0E-01
     Exchange-correlation= PBE
                           (   1   4   3   4   0   0   0)
     nstep                     =           50


     celldm(1)=  10.719471  celldm(2)=   0.000000  celldm(3)=   0.000000
     celldm(4)=   0.000000  celldm(5)=   0.000000  celldm(6)=   0.000000

     crystal axes: (cart. coord. in units of alat)
               a(1) = (   0.500000   0.500000   0.000000 )  
               a(2) = (   0.500000   0.000000   0.500000 )  
               a(3) = (   0.000000   0.500000   0.500000 )  

     reciprocal axes: (cart. coord. in units 2 pi/alat)
               b(1) = (  1.000000  1.000000 -1.000000 )  
               b(2) = (  1.000000 -1.000000  1.000000 )  
               b(3) = ( -1.000000  1.000000  1.000000 )  


     PseudoPot. # 1 for K  read from file:
     /home/garima.iitr/.cache/.es/compmat/kh/K.pbe-spn-kjpaw_psl.1.0.0.UPF
     MD5 check sum: 34cc42130a09071ebe376fd42eb21491
     Pseudo is Projector augmented-wave + core cor, Zval =  9.0
     Generated using &quot;atomic&quot; code by A. Dal Corso  v.6.2.2
     Shape of augmentation charge: PSQ
     Using radial grid of 1165 points,  6 beta functions with: 
                l(1) =   0
                l(2) =   0
                l(3) =   1
                l(4) =   1
                l(5) =   2
                l(6) =   2
     Q(r) pseudized with 0 coefficients 


     PseudoPot. # 2 for H  read from file:
     /home/garima.iitr/.cache/.es/compmat/kh/H.pbe-rrkjus_psl.1.0.0.UPF
     MD5 check sum: 3f4114867bd07edc7f1424d066fc1888
     Pseudo is Ultrasoft, Zval =  1.0
     Generated using &quot;atomic&quot; code by A. Dal Corso  v.6.3MaX
     Using radial grid of  929 points,  2 beta functions with: 
                l(1) =   0
                l(2) =   0
     Q(r) pseudized with 0 coefficients 


     atomic species   valence    mass     pseudopotential
        K              9.00    39.09830     K ( 1.00)
        H              1.00     1.00750     H ( 1.00)

     48 Sym. Ops., with inversion, found



   Cartesian axes

     site n.     atom                  positions (alat units)
         1           K   tau(   1) = (   0.0000000   0.0000000   0.0000000  )
         2           H   tau(   2) = (   0.5000000   0.5000000   0.5000000  )

     number of k points=    16  Marzari-Vanderbilt smearing, width (Ry)=  0.0050
                       cart. coord. in units 2pi/alat
        k(    1) = (   0.0000000   0.0000000   0.0000000), wk =   0.0092593
        k(    2) = (  -0.1666667   0.1666667   0.1666667), wk =   0.0740741
        k(    3) = (  -0.3333333   0.3333333   0.3333333), wk =   0.0740741
        k(    4) = (   0.5000000  -0.5000000  -0.5000000), wk =   0.0370370
        k(    5) = (   0.0000000   0.0000000   0.3333333), wk =   0.0555556
        k(    6) = (  -0.1666667   0.1666667   0.5000000), wk =   0.2222222
        k(    7) = (   0.6666667  -0.6666667  -0.3333333), wk =   0.2222222
        k(    8) = (   0.5000000  -0.5000000  -0.1666667), wk =   0.2222222
        k(    9) = (   0.3333333  -0.3333333   0.0000000), wk =   0.1111111
        k(   10) = (   0.0000000   0.0000000   0.6666667), wk =   0.0555556
        k(   11) = (   0.8333333  -0.8333333  -0.1666667), wk =   0.2222222
        k(   12) = (   0.6666667  -0.6666667  -0.0000000), wk =   0.1111111
        k(   13) = (   0.0000000   0.0000000  -1.0000000), wk =   0.0277778
        k(   14) = (   1.0000000  -0.6666667  -0.3333333), wk =   0.2222222
        k(   15) = (   0.8333333  -0.5000000  -0.1666667), wk =   0.2222222
        k(   16) = (   0.0000000   0.3333333  -1.0000000), wk =   0.1111111

     Dense  grid:    37917 G-vectors     FFT dimensions: (  48,  48,  48)

     Smooth grid:    26933 G-vectors     FFT dimensions: (  45,  45,  45)

     Estimated max dynamical RAM per process >       8.58 MB

     Estimated total dynamical RAM >       1.14 GB

     Check: negative core charge=   -0.000002

     Initial potential from superposition of free atoms

     starting charge       9.9812, renormalised to      10.0000
     Starting wfcs are    9 randomized atomic wfcs
     Checking if some PAW data can be deallocated... 

     total cpu time spent up to now is        0.6 secs

     Self-consistent Calculation

     iteration #  1     ecut=    75.00 Ry     beta= 0.70
     Davidson diagonalization with overlap
     ethr =  1.00E-02,  avg # of iterations =  7.1

     total cpu time spent up to now is        0.7 secs

     total energy              =    -114.17715459 Ry
     estimated scf accuracy    <       0.13753466 Ry

     iteration #  2     ecut=    75.00 Ry     beta= 0.70
     Davidson diagonalization with overlap
     ethr =  1.38E-03,  avg # of iterations =  2.5

     total cpu time spent up to now is        0.8 secs

     total energy              =    -114.20588243 Ry
     estimated scf accuracy    <       0.00639528 Ry

     iteration #  3     ecut=    75.00 Ry     beta= 0.70
     Davidson diagonalization with overlap
     ethr =  6.40E-05,  avg # of iterations =  5.6

     total cpu time spent up to now is        0.9 secs

     total energy              =    -114.20715326 Ry
     estimated scf accuracy    <       0.00018279 Ry

     iteration #  4     ecut=    75.00 Ry     beta= 0.70
     Davidson diagonalization with overlap
     ethr =  1.83E-06,  avg # of iterations =  8.4

     total cpu time spent up to now is        0.9 secs

     total energy              =    -114.20719369 Ry
     estimated scf accuracy    <       0.00000480 Ry

     iteration #  5     ecut=    75.00 Ry     beta= 0.70
     Davidson diagonalization with overlap
     ethr =  4.80E-08,  avg # of iterations =  2.8

     total cpu time spent up to now is        1.0 secs

     total energy              =    -114.20719560 Ry
     estimated scf accuracy    <       0.00000014 Ry

     iteration #  6     ecut=    75.00 Ry     beta= 0.70
     Davidson diagonalization with overlap
     ethr =  1.35E-09,  avg # of iterations =  2.7

     total cpu time spent up to now is        1.0 secs

     End of self-consistent calculation

          k = 0.0000 0.0000 0.0000 (  3383 PWs)   bands (ev):

   -27.4897 -10.8409 -10.8409 -10.8409  -0.3690   9.2492   9.2492   9.2492
     9.4676

          k =-0.1667 0.1667 0.1667 (  3383 PWs)   bands (ev):

   -27.4816 -10.9280 -10.8504 -10.8504   0.0048   7.9790   9.3425   9.3425
     9.3758

          k =-0.3333 0.3333 0.3333 (  3386 PWs)   bands (ev):

   -27.4654 -11.0950 -10.8693 -10.8693   0.9117   5.9840   8.9331   8.9331
     9.7679

          k = 0.5000-0.5000-0.5000 (  3354 PWs)   bands (ev):

   -27.4573 -11.1752 -10.8787 -10.8787   1.5478   4.9842   8.6689   8.6689
    10.4207

          k = 0.0000 0.0000 0.3333 (  3375 PWs)   bands (ev):

   -27.4790 -10.9250 -10.8683 -10.8683   0.0982   8.1234   8.4500   9.4307
     9.4307

          k =-0.1667 0.1667 0.5000 (  3382 PWs)   bands (ev):

   -27.4655 -11.0445 -10.8923 -10.8915   0.7385   6.6976   7.9259   9.3803
    10.1139

          k = 0.6667-0.6667-0.3333 (  3361 PWs)   bands (ev):

   -27.4547 -11.1371 -10.9257 -10.8967   1.4238   5.5327   7.8445   9.0200
    10.7246

          k = 0.5000-0.5000-0.1667 (  3382 PWs)   bands (ev):

   -27.4574 -11.1132 -10.9367 -10.8790   1.2863   5.7784   7.7051   9.0230
    10.9204

          k = 0.3333-0.3333 0.0000 (  3393 PWs)   bands (ev):

   -27.4709 -11.0087 -10.9005 -10.8558   0.5256   7.1667   7.8547   9.5162
     9.8977

          k = 0.0000 0.0000 0.6667 (  3399 PWs)   bands (ev):

   -27.4576 -11.0694 -10.9229 -10.9229   0.8903   6.8402   7.3989  10.1458
    10.1459

          k = 0.8333-0.8333-0.1667 (  3377 PWs)   bands (ev):

   -27.4495 -11.1039 -10.9725 -10.9324   1.2145   6.6147   7.1272  10.0048
    10.3050

          k = 0.6667-0.6667-0.0000 (  3370 PWs)   bands (ev):

   -27.4494 -11.0604 -11.0460 -10.9105   1.4359   6.2810   6.9567   9.4439
    10.7424

          k = 0.0000 0.0000-1.0000 (  3378 PWs)   bands (ev):

   -27.4470 -11.1310 -10.9501 -10.9501   1.1205   6.9526   6.9993  11.1970
    11.1970

          k = 1.0000-0.6667-0.3333 (  3384 PWs)   bands (ev):

   -27.4548 -11.0828 -10.9643 -10.9071   1.1919   6.4280   7.1788   9.2990
    10.6324

          k = 0.8333-0.5000-0.1667 (  3360 PWs)   bands (ev):

   -27.4494 -11.0898 -11.0014 -10.9257   1.4361   6.1841   7.1783   9.0380
    11.1830

          k = 0.0000 0.3333-1.0000 (  3358 PWs)   bands (ev):

   -27.4468 -11.0864 -10.9959 -10.9585   1.3243   6.9045   6.9199   8.9503
    11.7132

     the Fermi energy is     2.2526 ev

!    total energy              =    -114.20719569 Ry
     estimated scf accuracy    <          1.6E-09 Ry
     smearing contrib. (-TS)   =       0.00000000 Ry
     internal energy E=F+TS    =    -114.20719569 Ry

     The total energy is F=E-TS. E is the sum of the following terms:
     one-electron contribution =     -24.88068115 Ry
     hartree contribution      =      14.95572350 Ry
     xc contribution           =     -11.96117629 Ry
     ewald contribution        =     -36.90236819 Ry
     one-center paw contrib.   =     -55.41869356 Ry

     convergence has been achieved in   6 iterations

     Forces acting on atoms (cartesian axes, Ry/au):

     atom    1 type  1   force =    -0.00000000    0.00000000    0.00000000
     atom    2 type  2   force =     0.00000000   -0.00000000   -0.00000000

     Total force =     0.000000     Total SCF correction =     0.000000


     Computing stress (Cartesian axis) and pressure

          total   stress  (Ry/bohr**3)                   (kbar)     P=        1.58
   0.00001071   0.00000000   0.00000000            1.58        0.00        0.00
   0.00000000   0.00001071   0.00000000            0.00        1.58        0.00
   0.00000000   0.00000000   0.00001071            0.00        0.00        1.58


     BFGS Geometry Optimization
     Energy error            =      0.0E+00 Ry
     Gradient error          =      4.1E-33 Ry/Bohr
     Cell gradient error     =      1.6E+00 kbar

     number of scf cycles    =   1
     number of bfgs steps    =   0

     enthalpy           new  =    -114.2071956854 Ry

     new trust radius        =       0.0009397379 bohr
     Message from routine volume:
     axis vectors are left-handed
     new conv_thr            =       0.0000000100 Ry

     new unit-cell volume =    308.18318 a.u.^3 (    45.66804 Ang^3 )
     density =      1.45829 g/cm^3

CELL_PARAMETERS (alat= 10.71947144)
   0.500133880   0.500133880   0.000000000
   0.500133880   0.000000000   0.500133880
   0.000000000   0.500133880   0.500133880

ATOMIC_POSITIONS (crystal)
K            -0.0000000000       -0.0000000000        0.0000000000
H             0.5000000000        0.5000000000        0.5000000000



     Writing config-only to output data dir ./kh.save/
     NEW-OLD atomic charge density approx. for the potential

     Check: negative core charge=   -0.000002
     extrapolated charge   10.00801, renormalised to   10.00000

     total cpu time spent up to now is        1.3 secs

     Self-consistent Calculation

     iteration #  1     ecut=    75.00 Ry     beta= 0.70
     Davidson diagonalization with overlap
     ethr =  1.00E-06,  avg # of iterations =  2.2

     Threshold (ethr) on eigenvalues was too large:
     Diagonalizing with lowered threshold

     Davidson diagonalization with overlap
     ethr =  4.91E-08,  avg # of iterations =  1.3

     total cpu time spent up to now is        1.4 secs

     total energy              =    -114.20718862 Ry
     estimated scf accuracy    <       0.00000514 Ry

     iteration #  2     ecut=    75.00 Ry     beta= 0.70
     Davidson diagonalization with overlap
     ethr =  5.14E-08,  avg # of iterations =  2.4

     total cpu time spent up to now is        1.4 secs

     total energy              =    -114.20719850 Ry
     estimated scf accuracy    <       0.00000724 Ry

     iteration #  3     ecut=    75.00 Ry     beta= 0.70
     Davidson diagonalization with overlap
     ethr =  5.14E-08,  avg # of iterations =  1.0

     total cpu time spent up to now is        1.5 secs

     total energy              =    -114.20719882 Ry
     estimated scf accuracy    <       0.00000151 Ry

     iteration #  4     ecut=    75.00 Ry     beta= 0.70
     Davidson diagonalization with overlap
     ethr =  1.51E-08,  avg # of iterations =  1.0

     total cpu time spent up to now is        1.6 secs

     total energy              =    -114.20719903 Ry
     estimated scf accuracy    <       0.00000130 Ry

     iteration #  5     ecut=    75.00 Ry     beta= 0.70
     Davidson diagonalization with overlap
     ethr =  1.30E-08,  avg # of iterations =  1.0

     total cpu time spent up to now is        1.7 secs

     total energy              =    -114.20719855 Ry
     estimated scf accuracy    <       0.00000166 Ry

     iteration #  6     ecut=    75.00 Ry     beta= 0.70
     Davidson diagonalization with overlap
     ethr =  1.30E-08,  avg # of iterations =  1.0

     total cpu time spent up to now is        1.7 secs

     total energy              =    -114.20719814 Ry
     estimated scf accuracy    <       0.00000094 Ry

     iteration #  7     ecut=    75.00 Ry     beta= 0.70
     Davidson diagonalization with overlap
     ethr =  9.38E-09,  avg # of iterations =  2.0

     total cpu time spent up to now is        1.8 secs

     total energy              =    -114.20719823 Ry
     estimated scf accuracy    <       0.00000019 Ry

     iteration #  8     ecut=    75.00 Ry     beta= 0.70
     Davidson diagonalization with overlap
     ethr =  1.92E-09,  avg # of iterations =  1.1

     total cpu time spent up to now is        1.9 secs

     total energy              =    -114.20719823 Ry
     estimated scf accuracy    <       0.00000006 Ry

     iteration #  9     ecut=    75.00 Ry     beta= 0.70
     Davidson diagonalization with overlap
     ethr =  6.41E-10,  avg # of iterations =  1.0

     total cpu time spent up to now is        1.9 secs

     total energy              =    -114.20719825 Ry
     estimated scf accuracy    <       0.00000006 Ry

     iteration # 10     ecut=    75.00 Ry     beta= 0.70
     Davidson diagonalization with overlap
     ethr =  5.88E-10,  avg # of iterations =  1.0

     total cpu time spent up to now is        2.0 secs

     total energy              =    -114.20719821 Ry
     estimated scf accuracy    <       0.00000011 Ry

     iteration # 11     ecut=    75.00 Ry     beta= 0.70
     Davidson diagonalization with overlap
     ethr =  5.88E-10,  avg # of iterations =  1.9

     total cpu time spent up to now is        2.0 secs

     End of self-consistent calculation

          k = 0.0000 0.0000 0.0000 (  3383 PWs)   bands (ev):

   -27.4950 -10.8466 -10.8466 -10.8466  -0.3721   9.2435   9.2435   9.2435
     9.4584

          k =-0.1666 0.1666 0.1666 (  3383 PWs)   bands (ev):

   -27.4870 -10.9335 -10.8561 -10.8561   0.0013   7.9728   9.3367   9.3367
     9.3682

          k =-0.3332 0.3332 0.3332 (  3386 PWs)   bands (ev):

   -27.4708 -11.1001 -10.8749 -10.8749   0.9075   5.9788   8.9274   8.9274
     9.7604

          k = 0.4999-0.4999-0.4999 (  3354 PWs)   bands (ev):

   -27.4627 -11.1801 -10.8843 -10.8843   1.5430   4.9795   8.6634   8.6634
    10.4126

          k = 0.0000 0.0000 0.3332 (  3375 PWs)   bands (ev):

   -27.4843 -10.9304 -10.8740 -10.8740   0.0947   8.1163   8.4449   9.4246
     9.4246

          k =-0.1666 0.1666 0.4999 (  3382 PWs)   bands (ev):

   -27.4709 -11.0497 -10.8979 -10.8970   0.7345   6.6919   7.9206   9.3742
    10.1071

          k = 0.6665-0.6665-0.3332 (  3361 PWs)   bands (ev):

   -27.4601 -11.1421 -10.9311 -10.9023   1.4193   5.5277   7.8389   9.0141
    10.7169

          k = 0.4999-0.4999-0.1666 (  3382 PWs)   bands (ev):

   -27.4628 -11.1182 -10.9421 -10.8846   1.2819   5.7733   7.6995   9.0172
    10.9133

          k = 0.3332-0.3332 0.0000 (  3393 PWs)   bands (ev):

   -27.4763 -11.0140 -10.9060 -10.8614   0.5217   7.1604   7.8496   9.5101
     9.8916

          k = 0.0000 0.0000 0.6665 (  3399 PWs)   bands (ev):

   -27.4631 -11.0745 -10.9284 -10.9284   0.8864   6.8339   7.3945  10.1386
    10.1387

          k = 0.8331-0.8331-0.1666 (  3377 PWs)   bands (ev):

   -27.4550 -11.1089 -10.9779 -10.9379   1.2106   6.6090   7.1220   9.9978
    10.2968

          k = 0.6665-0.6665 0.0000 (  3370 PWs)   bands (ev):

   -27.4549 -11.0655 -11.0512 -10.9161   1.4316   6.2757   6.9509   9.4375
    10.7343

          k = 0.0000 0.0000-0.9997 (  3378 PWs)   bands (ev):

   -27.4524 -11.1360 -10.9555 -10.9555   1.1169   6.9458   6.9951  11.1879
    11.1879

          k = 0.9997-0.6665-0.3332 (  3384 PWs)   bands (ev):

   -27.4603 -11.0879 -10.9696 -10.9127   1.1878   6.4222   7.1738   9.2925
    10.6254

          k = 0.8331-0.4999-0.1666 (  3360 PWs)   bands (ev):

   -27.4549 -11.0948 -11.0067 -10.9312   1.4319   6.1788   7.1728   9.0315
    11.1735

          k =-0.0000 0.3332-0.9997 (  3358 PWs)   bands (ev):

   -27.4523 -11.0915 -11.0012 -10.9639   1.3204   6.8984   6.9150   8.9430
    11.7032

     the Fermi energy is     2.2437 ev

!    total energy              =    -114.20719822 Ry
     estimated scf accuracy    <          2.7E-10 Ry
     smearing contrib. (-TS)   =       0.00000000 Ry
     internal energy E=F+TS    =    -114.20719822 Ry

     The total energy is F=E-TS. E is the sum of the following terms:
     one-electron contribution =     -24.89660887 Ry
     hartree contribution      =      14.96153014 Ry
     xc contribution           =     -11.96093977 Ry
     ewald contribution        =     -36.89248984 Ry
     one-center paw contrib.   =     -55.41868988 Ry

     convergence has been achieved in  11 iterations

     Forces acting on atoms (cartesian axes, Ry/au):

     atom    1 type  1   force =    -0.00000000    0.00000000    0.00000000
     atom    2 type  2   force =     0.00000000    0.00000000    0.00000000

     Total force =     0.000000     Total SCF correction =     0.000000


     Computing stress (Cartesian axis) and pressure

          total   stress  (Ry/bohr**3)                   (kbar)     P=        1.46
   0.00000991  -0.00000000  -0.00000000            1.46       -0.00       -0.00
  -0.00000000   0.00000991  -0.00000000           -0.00        1.46       -0.00
   0.00000000  -0.00000000   0.00000991            0.00       -0.00        1.46

     Energy error            =      2.5E-06 Ry
     Gradient error          =      5.8E-32 Ry/Bohr
     Cell gradient error     =      1.5E+00 kbar

     number of scf cycles    =   2
     number of bfgs steps    =   1

     enthalpy           old  =    -114.2071956854 Ry
     enthalpy           new  =    -114.2071982186 Ry

     CASE: enthalpy          _new < enthalpy          _old


     WARNING: bfgs curvature condition failed, Theta= 0.864
     new trust radius        =       0.0010338500 bohr
     Message from routine volume:
     axis vectors are left-handed
     new conv_thr            =            1.0E-10 Ry

     new unit-cell volume =    308.45550 a.u.^3 (    45.70839 Ang^3 )
     density =      1.45700 g/cm^3

CELL_PARAMETERS (alat= 10.71947144)
   0.500281149   0.500281149   0.000000000
   0.500281149   0.000000000   0.500281149
   0.000000000   0.500281149   0.500281149

ATOMIC_POSITIONS (crystal)
K            -0.0000000000       -0.0000000000        0.0000000000
H             0.5000000000        0.5000000000        0.5000000000



     Writing config-only to output data dir ./kh.save/
     NEW-OLD atomic charge density approx. for the potential

     Check: negative core charge=   -0.000002
     extrapolated charge   10.00881, renormalised to   10.00000

     total cpu time spent up to now is        2.3 secs

     Self-consistent Calculation

     iteration #  1     ecut=    75.00 Ry     beta= 0.70
     Davidson diagonalization with overlap
     ethr =  1.00E-06,  avg # of iterations =  2.0

     Threshold (ethr) on eigenvalues was too large:
     Diagonalizing with lowered threshold

     Davidson diagonalization with overlap
     ethr =  5.86E-08,  avg # of iterations =  1.3

     total cpu time spent up to now is        2.4 secs

     total energy              =    -114.20718921 Ry
     estimated scf accuracy    <       0.00000617 Ry

     iteration #  2     ecut=    75.00 Ry     beta= 0.70
     Davidson diagonalization with overlap
     ethr =  6.17E-08,  avg # of iterations =  2.4

     total cpu time spent up to now is        2.4 secs

     total energy              =    -114.20720114 Ry
     estimated scf accuracy    <       0.00000875 Ry

     iteration #  3     ecut=    75.00 Ry     beta= 0.70
     Davidson diagonalization with overlap
     ethr =  6.17E-08,  avg # of iterations =  1.0

     total cpu time spent up to now is        2.5 secs

     total energy              =    -114.20720148 Ry
     estimated scf accuracy    <       0.00000184 Ry

     iteration #  4     ecut=    75.00 Ry     beta= 0.70
     Davidson diagonalization with overlap
     ethr =  1.84E-08,  avg # of iterations =  1.0

     total cpu time spent up to now is        2.5 secs

     total energy              =    -114.20720171 Ry
     estimated scf accuracy    <       0.00000152 Ry

     iteration #  5     ecut=    75.00 Ry     beta= 0.70
     Davidson diagonalization with overlap
     ethr =  1.52E-08,  avg # of iterations =  1.0

     total cpu time spent up to now is        2.6 secs

     total energy              =    -114.20720169 Ry
     estimated scf accuracy    <       0.00000190 Ry

     iteration #  6     ecut=    75.00 Ry     beta= 0.70
     Davidson diagonalization with overlap
     ethr =  1.52E-08,  avg # of iterations =  1.0

     total cpu time spent up to now is        2.6 secs

     total energy              =    -114.20720043 Ry
     estimated scf accuracy    <       0.00000208 Ry

     iteration #  7     ecut=    75.00 Ry     beta= 0.70
     Davidson diagonalization with overlap
     ethr =  1.52E-08,  avg # of iterations =  2.0

     total cpu time spent up to now is        2.7 secs

     total energy              =    -114.20720078 Ry
     estimated scf accuracy    <       0.00000010 Ry

     iteration #  8     ecut=    75.00 Ry     beta= 0.70
     Davidson diagonalization with overlap
     ethr =  1.01E-09,  avg # of iterations =  1.5

     total cpu time spent up to now is        2.7 secs

     total energy              =    -114.20720079 Ry
     estimated scf accuracy    <       0.00000004 Ry

     iteration #  9     ecut=    75.00 Ry     beta= 0.70
     Davidson diagonalization with overlap
     ethr =  3.72E-10,  avg # of iterations =  1.0

     total cpu time spent up to now is        2.8 secs

     total energy              =    -114.20720079 Ry
     estimated scf accuracy    <       0.00000004 Ry

     iteration # 10     ecut=    75.00 Ry     beta= 0.70
     Davidson diagonalization with overlap
     ethr =  3.69E-10,  avg # of iterations =  1.0

     total cpu time spent up to now is        2.8 secs

     total energy              =    -114.20720080 Ry
     estimated scf accuracy    <       0.00000004 Ry

     iteration # 11     ecut=    75.00 Ry     beta= 0.70
     Davidson diagonalization with overlap
     ethr =  3.66E-10,  avg # of iterations =  1.0

     total cpu time spent up to now is        2.9 secs

     total energy              =    -114.20720078 Ry
     estimated scf accuracy    <       0.00000006 Ry

     iteration # 12     ecut=    75.00 Ry     beta= 0.70
     Davidson diagonalization with overlap
     ethr =  3.66E-10,  avg # of iterations =  2.0

     total cpu time spent up to now is        2.9 secs

     total energy              =    -114.20720078 Ry
     estimated scf accuracy    <          1.7E-09 Ry

     iteration # 13     ecut=    75.00 Ry     beta= 0.70
     Davidson diagonalization with overlap
     ethr =  1.67E-11,  avg # of iterations =  1.0

     total cpu time spent up to now is        3.0 secs

     total energy              =    -114.20720078 Ry
     estimated scf accuracy    <          1.6E-10 Ry

     iteration # 14     ecut=    75.00 Ry     beta= 0.70
     Davidson diagonalization with overlap
     ethr =  1.61E-12,  avg # of iterations =  1.6

     total cpu time spent up to now is        3.0 secs

     total energy              =    -114.20720078 Ry
     estimated scf accuracy    <          1.6E-10 Ry

     iteration # 15     ecut=    75.00 Ry     beta= 0.70
     Davidson diagonalization with overlap
     ethr =  1.56E-12,  avg # of iterations =  1.0

     total cpu time spent up to now is        3.1 secs

     End of self-consistent calculation

          k = 0.0000 0.0000 0.0000 (  3383 PWs)   bands (ev):

   -27.5013 -10.8532 -10.8532 -10.8532  -0.3758   9.2370   9.2370   9.2370
     9.4478

          k =-0.1666 0.1666 0.1666 (  3383 PWs)   bands (ev):

   -27.4933 -10.9399 -10.8627 -10.8627  -0.0027   7.9655   9.3300   9.3300
     9.3594

          k =-0.3331 0.3331 0.3331 (  3386 PWs)   bands (ev):

   -27.4772 -11.1060 -10.8815 -10.8815   0.9026   5.9725   8.9210   8.9210
     9.7514

          k = 0.4997-0.4997-0.4997 (  3354 PWs)   bands (ev):

   -27.4691 -11.1858 -10.8909 -10.8909   1.5375   4.9739   8.6572   8.6572
    10.4028

          k = 0.0000 0.0000 0.3331 (  3375 PWs)   bands (ev):

   -27.4907 -10.9368 -10.8805 -10.8805   0.0906   8.1080   8.4389   9.4177
     9.4177

          k =-0.1666 0.1666 0.4997 (  3382 PWs)   bands (ev):

   -27.4773 -11.0558 -10.9044 -10.9035   0.7299   6.6852   7.9144   9.3672
    10.0995

          k = 0.6663-0.6663-0.3331 (  3361 PWs)   bands (ev):

   -27.4666 -11.1479 -10.9376 -10.9088   1.4142   5.5217   7.8323   9.0074
    10.7084

          k = 0.4997-0.4997-0.1666 (  3382 PWs)   bands (ev):

   -27.4693 -11.1241 -10.9485 -10.8911   1.2768   5.7671   7.6929   9.0106
    10.9055

          k = 0.3331-0.3331 0.0000 (  3393 PWs)   bands (ev):

   -27.4827 -11.0202 -10.9125 -10.8681   0.5172   7.1532   7.8434   9.5033
     9.8847

          k = 0.0000 0.0000 0.6663 (  3399 PWs)   bands (ev):

   -27.4695 -11.0805 -10.9349 -10.9349   0.8820   6.8266   7.3892  10.1306
    10.1306

          k = 0.8329-0.8329-0.1666 (  3377 PWs)   bands (ev):

   -27.4615 -11.1148 -10.9841 -10.9443   1.2062   6.6021   7.1157   9.9899
    10.2877

          k = 0.6663-0.6663 0.0000 (  3370 PWs)   bands (ev):

   -27.4614 -11.0715 -11.0573 -10.9225   1.4269   6.2695   6.9440   9.4303
    10.7252

          k = 0.0000 0.0000-0.9994 (  3378 PWs)   bands (ev):

   -27.4589 -11.1419 -10.9619 -10.9619   1.1128   6.9378   6.9900  11.1779
    11.1779

          k = 0.9994-0.6663-0.3331 (  3384 PWs)   bands (ev):

   -27.4667 -11.0939 -10.9760 -10.9191   1.1831   6.4154   7.1678   9.2852
    10.6176

          k = 0.8329-0.4997-0.1666 (  3360 PWs)   bands (ev):

   -27.4614 -11.1008 -11.0129 -10.9376   1.4272   6.1723   7.1661   9.0241
    11.1648

          k = 0.0000 0.3331-0.9994 (  3358 PWs)   bands (ev):

   -27.4588 -11.0975 -11.0075 -10.9702   1.3161   6.8910   6.9091   8.9349
    11.6929

     the Fermi energy is     2.2345 ev

!    total energy              =    -114.20720078 Ry
     estimated scf accuracy    <          6.8E-11 Ry
     smearing contrib. (-TS)   =       0.00000000 Ry
     internal energy E=F+TS    =    -114.20720078 Ry

     The total energy is F=E-TS. E is the sum of the following terms:
     one-electron contribution =     -24.91413579 Ry
     hartree contribution      =      14.96793142 Ry
     xc contribution           =     -11.96068334 Ry
     ewald contribution        =     -36.88162976 Ry
     one-center paw contrib.   =     -55.41868332 Ry

     convergence has been achieved in  15 iterations

     Forces acting on atoms (cartesian axes, Ry/au):

     atom    1 type  1   force =     0.00000000    0.00000000    0.00000000
     atom    2 type  2   force =     0.00000000   -0.00000000    0.00000000

     Total force =     0.000000     Total SCF correction =     0.000000


     Computing stress (Cartesian axis) and pressure

          total   stress  (Ry/bohr**3)                   (kbar)     P=        1.32
   0.00000895   0.00000000   0.00000000            1.32        0.00        0.00
   0.00000000   0.00000895   0.00000000            0.00        1.32        0.00
   0.00000000   0.00000000   0.00000895            0.00        0.00        1.32

     Energy error            =      2.6E-06 Ry
     Gradient error          =      8.2E-33 Ry/Bohr
     Cell gradient error     =      1.3E+00 kbar

     number of scf cycles    =   3
     number of bfgs steps    =   2

     enthalpy           old  =    -114.2071982186 Ry
     enthalpy           new  =    -114.2072007813 Ry

     CASE: enthalpy          _new < enthalpy          _old

     new trust radius        =       0.0015510033 bohr
     Message from routine volume:
     axis vectors are left-handed
     new conv_thr            =            1.0E-10 Ry

     new unit-cell volume =    308.86429 a.u.^3 (    45.76897 Ang^3 )
     density =      1.45507 g/cm^3

CELL_PARAMETERS (alat= 10.71947144)
   0.500502051   0.500502051   0.000000000
   0.500502051   0.000000000   0.500502051
   0.000000000   0.500502051   0.500502051

ATOMIC_POSITIONS (crystal)
K            -0.0000000000       -0.0000000000        0.0000000000
H             0.5000000000        0.5000000000        0.5000000000



     Writing config-only to output data dir ./kh.save/
     NEW-OLD atomic charge density approx. for the potential

     Check: negative core charge=   -0.000002
     extrapolated charge   10.01321, renormalised to   10.00000

     total cpu time spent up to now is        3.3 secs

     Self-consistent Calculation

     iteration #  1     ecut=    75.00 Ry     beta= 0.70
     Davidson diagonalization with overlap
     ethr =  1.00E-06,  avg # of iterations =  2.0

     total cpu time spent up to now is        3.4 secs

     total energy              =    -114.20717905 Ry
     estimated scf accuracy    <       0.00001310 Ry

     iteration #  2     ecut=    75.00 Ry     beta= 0.70
     Davidson diagonalization with overlap
     ethr =  1.31E-07,  avg # of iterations =  2.4

     total cpu time spent up to now is        3.5 secs

     total energy              =    -114.20720500 Ry
     estimated scf accuracy    <       0.00001858 Ry

     iteration #  3     ecut=    75.00 Ry     beta= 0.70
     Davidson diagonalization with overlap
     ethr =  1.31E-07,  avg # of iterations =  1.0

     total cpu time spent up to now is        3.5 secs

     total energy              =    -114.20720572 Ry
     estimated scf accuracy    <       0.00000394 Ry

     iteration #  4     ecut=    75.00 Ry     beta= 0.70
     Davidson diagonalization with overlap
     ethr =  3.94E-08,  avg # of iterations =  1.0

     total cpu time spent up to now is        3.6 secs

     total energy              =    -114.20720607 Ry
     estimated scf accuracy    <       0.00000324 Ry

     iteration #  5     ecut=    75.00 Ry     beta= 0.70
     Davidson diagonalization with overlap
     ethr =  3.24E-08,  avg # of iterations =  1.0

     total cpu time spent up to now is        3.6 secs

     total energy              =    -114.20720414 Ry
     estimated scf accuracy    <       0.00000374 Ry

     iteration #  6     ecut=    75.00 Ry     beta= 0.70
     Davidson diagonalization with overlap
     ethr =  3.24E-08,  avg # of iterations =  1.9

     total cpu time spent up to now is        3.7 secs

     total energy              =    -114.20720411 Ry
     estimated scf accuracy    <       0.00000076 Ry

     iteration #  7     ecut=    75.00 Ry     beta= 0.70
     Davidson diagonalization with overlap
     ethr =  7.63E-09,  avg # of iterations =  2.0

     total cpu time spent up to now is        3.7 secs

     total energy              =    -114.20720420 Ry
     estimated scf accuracy    <       0.00000010 Ry

     iteration #  8     ecut=    75.00 Ry     beta= 0.70
     Davidson diagonalization with overlap
     ethr =  9.57E-10,  avg # of iterations =  1.6

     total cpu time spent up to now is        3.8 secs

     total energy              =    -114.20720420 Ry
     estimated scf accuracy    <       0.00000005 Ry

     iteration #  9     ecut=    75.00 Ry     beta= 0.70
     Davidson diagonalization with overlap
     ethr =  5.26E-10,  avg # of iterations =  1.0

     total cpu time spent up to now is        3.8 secs

     total energy              =    -114.20720419 Ry
     estimated scf accuracy    <       0.00000004 Ry

     iteration # 10     ecut=    75.00 Ry     beta= 0.70
     Davidson diagonalization with overlap
     ethr =  4.04E-10,  avg # of iterations =  1.0

     total cpu time spent up to now is        3.9 secs

     total energy              =    -114.20720419 Ry
     estimated scf accuracy    <       0.00000001 Ry

     iteration # 11     ecut=    75.00 Ry     beta= 0.70
     Davidson diagonalization with overlap
     ethr =  1.05E-10,  avg # of iterations =  1.0

     total cpu time spent up to now is        3.9 secs

     total energy              =    -114.20720419 Ry
     estimated scf accuracy    <          3.2E-10 Ry

     iteration # 12     ecut=    75.00 Ry     beta= 0.70
     Davidson diagonalization with overlap
     ethr =  3.21E-12,  avg # of iterations =  2.2

     total cpu time spent up to now is        4.0 secs

     total energy              =    -114.20720419 Ry
     estimated scf accuracy    <          1.5E-10 Ry

     iteration # 13     ecut=    75.00 Ry     beta= 0.70
     Davidson diagonalization with overlap
     ethr =  1.45E-12,  avg # of iterations =  1.1

     total cpu time spent up to now is        4.0 secs

     End of self-consistent calculation

          k = 0.0000 0.0000 0.0000 (  3383 PWs)   bands (ev):

   -27.5107 -10.8631 -10.8631 -10.8631  -0.3813   9.2273   9.2273   9.2273
     9.4320

          k =-0.1665 0.1665 0.1665 (  3383 PWs)   bands (ev):

   -27.5027 -10.9494 -10.8726 -10.8726  -0.0088   7.9546   9.3201   9.3201
     9.3463

          k =-0.3330 0.3330 0.3330 (  3386 PWs)   bands (ev):

   -27.4867 -11.1148 -10.8913 -10.8913   0.8954   5.9632   8.9114   8.9114
     9.7379

          k = 0.4995-0.4995-0.4995 (  3354 PWs)   bands (ev):

   -27.4787 -11.1942 -10.9006 -10.9006   1.5294   4.9655   8.6479   8.6479
    10.3881

          k = 0.0000 0.0000 0.3330 (  3375 PWs)   bands (ev):

   -27.5001 -10.9463 -10.8903 -10.8903   0.0844   8.0958   8.4299   9.4074
     9.4074

          k =-0.1665 0.1665 0.4995 (  3382 PWs)   bands (ev):

   -27.4868 -11.0648 -10.9141 -10.9132   0.7231   6.6751   7.9050   9.3567
    10.0882

          k = 0.6660-0.6660-0.3330 (  3361 PWs)   bands (ev):

   -27.4761 -11.1565 -10.9471 -10.9184   1.4067   5.5127   7.8224   8.9975
    10.6958

          k = 0.4995-0.4995-0.1665 (  3382 PWs)   bands (ev):

   -27.4788 -11.1328 -10.9580 -10.9009   1.2693   5.7580   7.6831   9.0008
    10.8940

          k = 0.3330-0.3330 0.0000 (  3393 PWs)   bands (ev):

   -27.4921 -11.0293 -10.9221 -10.8779   0.5105   7.1423   7.8342   9.4932
     9.8743

          k = 0.0000 0.0000 0.6660 (  3399 PWs)   bands (ev):

   -27.4790 -11.0895 -10.9444 -10.9444   0.8755   6.8155   7.3811  10.1186
    10.1186

          k = 0.8325-0.8325-0.1665 (  3377 PWs)   bands (ev):

   -27.4711 -11.1236 -10.9935 -10.9538   1.1997   6.5919   7.1064   9.9782
    10.2740

          k = 0.6660-0.6660 0.0000 (  3370 PWs)   bands (ev):

   -27.4710 -11.0805 -11.0663 -10.9322   1.4198   6.2602   6.9336   9.4196
    10.7116

          k = 0.0000 0.0000-0.9990 (  3378 PWs)   bands (ev):

   -27.4685 -11.1506 -10.9713 -10.9713   1.1068   6.9257   6.9823  11.1628
    11.1628

          k = 0.9990-0.6660-0.3330 (  3384 PWs)   bands (ev):

   -27.4763 -11.1028 -10.9853 -10.9288   1.1760   6.4053   7.1588   9.2743
    10.6060

          k = 0.8325-0.4995-0.1665 (  3360 PWs)   bands (ev):

   -27.4710 -11.1097 -11.0221 -10.9472   1.4201   6.1627   7.1561   9.0130
    11.1519

          k = 0.0000 0.3330-0.9990 (  3358 PWs)   bands (ev):

   -27.4684 -11.1063 -11.0167 -10.9796   1.3095   6.8800   6.9002   8.9226
    11.6782

     the Fermi energy is     2.2211 ev

!    total energy              =    -114.20720419 Ry
     estimated scf accuracy    <          4.0E-13 Ry
     smearing contrib. (-TS)   =       0.00000000 Ry
     internal energy E=F+TS    =    -114.20720419 Ry

     The total energy is F=E-TS. E is the sum of the following terms:
     one-electron contribution =     -24.94044359 Ry
     hartree contribution      =      14.97757438 Ry
     xc contribution           =     -11.96030405 Ry
     ewald contribution        =     -36.86535161 Ry
     one-center paw contrib.   =     -55.41867932 Ry

     convergence has been achieved in  13 iterations

     Forces acting on atoms (cartesian axes, Ry/au):

     atom    1 type  1   force =    -0.00000000    0.00000000    0.00000000
     atom    2 type  2   force =     0.00000000   -0.00000000    0.00000000

     Total force =     0.000000     Total SCF correction =     0.000000


     Computing stress (Cartesian axis) and pressure

          total   stress  (Ry/bohr**3)                   (kbar)     P=        1.13
   0.00000770   0.00000000  -0.00000000            1.13        0.00       -0.00
   0.00000000   0.00000770   0.00000000            0.00        1.13        0.00
   0.00000000  -0.00000000   0.00000770            0.00       -0.00        1.13

     Energy error            =      3.4E-06 Ry
     Gradient error          =      2.6E-31 Ry/Bohr
     Cell gradient error     =      1.1E+00 kbar

     number of scf cycles    =   4
     number of bfgs steps    =   3

     enthalpy           old  =    -114.2072007813 Ry
     enthalpy           new  =    -114.2072041913 Ry

     CASE: enthalpy          _new < enthalpy          _old

     new trust radius        =       0.0023270186 bohr
     Message from routine volume:
     axis vectors are left-handed
     new conv_thr            =            1.0E-10 Ry

     new unit-cell volume =    309.47814 a.u.^3 (    45.85993 Ang^3 )
     density =      1.45219 g/cm^3

CELL_PARAMETERS (alat= 10.71947144)
   0.500833405   0.500833405   0.000000000
   0.500833405   0.000000000   0.500833405
   0.000000000   0.500833405   0.500833405

ATOMIC_POSITIONS (crystal)
K            -0.0000000000        0.0000000000        0.0000000000
H             0.5000000000        0.5000000000        0.5000000000



     Writing config-only to output data dir ./kh.save/
     NEW-OLD atomic charge density approx. for the potential

     Check: negative core charge=   -0.000002
     extrapolated charge   10.01980, renormalised to   10.00000

     total cpu time spent up to now is        4.3 secs

     Self-consistent Calculation

     iteration #  1     ecut=    75.00 Ry     beta= 0.70
     Davidson diagonalization with overlap
     ethr =  1.00E-06,  avg # of iterations =  2.0

     total cpu time spent up to now is        4.3 secs

     total energy              =    -114.20715180 Ry
     estimated scf accuracy    <       0.00002953 Ry

     iteration #  2     ecut=    75.00 Ry     beta= 0.70
     Davidson diagonalization with overlap
     ethr =  2.95E-07,  avg # of iterations =  2.3

     total cpu time spent up to now is        4.4 secs

     total energy              =    -114.20721019 Ry
     estimated scf accuracy    <       0.00004185 Ry

     iteration #  3     ecut=    75.00 Ry     beta= 0.70
     Davidson diagonalization with overlap
     ethr =  2.95E-07,  avg # of iterations =  1.0

     total cpu time spent up to now is        4.4 secs

     total energy              =    -114.20721190 Ry
     estimated scf accuracy    <       0.00000888 Ry

     iteration #  4     ecut=    75.00 Ry     beta= 0.70
     Davidson diagonalization with overlap
     ethr =  8.88E-08,  avg # of iterations =  1.0

     total cpu time spent up to now is        4.5 secs

     total energy              =    -114.20721271 Ry
     estimated scf accuracy    <       0.00000749 Ry

     iteration #  5     ecut=    75.00 Ry     beta= 0.70
     Davidson diagonalization with overlap
     ethr =  7.49E-08,  avg # of iterations =  1.0

     total cpu time spent up to now is        4.5 secs

     total energy              =    -114.20721046 Ry
     estimated scf accuracy    <       0.00000865 Ry

     iteration #  6     ecut=    75.00 Ry     beta= 0.70
     Davidson diagonalization with overlap
     ethr =  7.49E-08,  avg # of iterations =  1.0

     total cpu time spent up to now is        4.6 secs

     total energy              =    -114.20720749 Ry
     estimated scf accuracy    <       0.00000429 Ry

     iteration #  7     ecut=    75.00 Ry     beta= 0.70
     Davidson diagonalization with overlap
     ethr =  4.29E-08,  avg # of iterations =  2.0

     total cpu time spent up to now is        4.6 secs

     total energy              =    -114.20720839 Ry
     estimated scf accuracy    <       0.00000031 Ry

     iteration #  8     ecut=    75.00 Ry     beta= 0.70
     Davidson diagonalization with overlap
     ethr =  3.11E-09,  avg # of iterations =  1.3

     total cpu time spent up to now is        4.7 secs

     total energy              =    -114.20720836 Ry
     estimated scf accuracy    <       0.00000021 Ry

     iteration #  9     ecut=    75.00 Ry     beta= 0.70
     Davidson diagonalization with overlap
     ethr =  2.13E-09,  avg # of iterations =  1.0

     total cpu time spent up to now is        4.7 secs

     total energy              =    -114.20720833 Ry
     estimated scf accuracy    <       0.00000012 Ry

     iteration # 10     ecut=    75.00 Ry     beta= 0.70
     Davidson diagonalization with overlap
     ethr =  1.21E-09,  avg # of iterations =  1.0

     total cpu time spent up to now is        4.8 secs

     total energy              =    -114.20720833 Ry
     estimated scf accuracy    <       0.00000002 Ry

     iteration # 11     ecut=    75.00 Ry     beta= 0.70
     Davidson diagonalization with overlap
     ethr =  1.95E-10,  avg # of iterations =  1.0

     total cpu time spent up to now is        4.8 secs

     total energy              =    -114.20720833 Ry
     estimated scf accuracy    <          4.9E-10 Ry

     iteration # 12     ecut=    75.00 Ry     beta= 0.70
     Davidson diagonalization with overlap
     ethr =  4.87E-12,  avg # of iterations =  2.5

     total cpu time spent up to now is        4.9 secs

     End of self-consistent calculation

          k = 0.0000 0.0000 0.0000 (  3383 PWs)   bands (ev):

   -27.5247 -10.8779 -10.8779 -10.8779  -0.3895   9.2127   9.2127   9.2127
     9.4082

          k =-0.1664 0.1664 0.1664 (  3383 PWs)   bands (ev):

   -27.5168 -10.9636 -10.8873 -10.8873  -0.0178   7.9384   9.3053   9.3053
     9.3266

          k =-0.3328 0.3328 0.3328 (  3386 PWs)   bands (ev):

   -27.5009 -11.1279 -10.9059 -10.9059   0.8844   5.9492   8.8971   8.8971
     9.7178

          k = 0.4992-0.4992-0.4992 (  3354 PWs)   bands (ev):

   -27.4929 -11.2069 -10.9151 -10.9151   1.5172   4.9529   8.6340   8.6340
    10.3662

          k =-0.0000 0.0000 0.3328 (  3375 PWs)   bands (ev):

   -27.5142 -10.9606 -10.9049 -10.9049   0.0752   8.0774   8.4165   9.3919
     9.3919

          k =-0.1664 0.1664 0.4992 (  3382 PWs)   bands (ev):

   -27.5010 -11.0782 -10.9285 -10.9277   0.7128   6.6600   7.8909   9.3411
    10.0714

          k = 0.6656-0.6656-0.3328 (  3361 PWs)   bands (ev):

   -27.4904 -11.1694 -10.9614 -10.9329   1.3953   5.4992   7.8076   8.9826
    10.6769

          k = 0.4992-0.4992-0.1664 (  3382 PWs)   bands (ev):

   -27.4930 -11.1459 -10.9722 -10.9154   1.2580   5.7442   7.6684   8.9861
    10.8768

          k = 0.3328-0.3328 0.0000 (  3393 PWs)   bands (ev):

   -27.5062 -11.0430 -10.9365 -10.8926   0.5004   7.1260   7.8204   9.4780
     9.8588

          k =-0.0000 0.0000 0.6656 (  3399 PWs)   bands (ev):

   -27.4933 -11.1028 -10.9587 -10.9587   0.8657   6.7991   7.3691  10.1006
    10.1006

          k = 0.8319-0.8319-0.1664 (  3377 PWs)   bands (ev):

   -27.4854 -11.1368 -11.0074 -10.9680   1.1899   6.5765   7.0924   9.9605
    10.2535

          k = 0.6656-0.6656 0.0000 (  3370 PWs)   bands (ev):

   -27.4853 -11.0939 -11.0798 -10.9465   1.4091   6.2463   6.9180   9.4035
    10.6913

          k = 0.0000-0.0000-0.9983 (  3378 PWs)   bands (ev):

   -27.4828 -11.1635 -10.9854 -10.9854   1.0977   6.9076   6.9708  11.1402
    11.1402

          k = 0.9983-0.6656-0.3328 (  3384 PWs)   bands (ev):

   -27.4905 -11.1160 -10.9994 -10.9431   1.1654   6.3900   7.1452   9.2579
    10.5886

          k = 0.8319-0.4992-0.1664 (  3360 PWs)   bands (ev):

   -27.4853 -11.1229 -11.0359 -10.9614   1.4094   6.1484   7.1412   8.9965
    11.1325

          k = 0.0000 0.3328-0.9983 (  3358 PWs)   bands (ev):

   -27.4827 -11.1196 -11.0305 -10.9936   1.2997   6.8636   6.8868   8.9043
    11.6562

     the Fermi energy is     2.2012 ev

!    total energy              =    -114.20720833 Ry
     estimated scf accuracy    <          9.1E-11 Ry
     smearing contrib. (-TS)   =       0.00000000 Ry
     internal energy E=F+TS    =    -114.20720833 Ry

     The total energy is F=E-TS. E is the sum of the following terms:
     one-electron contribution =     -24.97983969 Ry
     hartree contribution      =      14.99199738 Ry
     xc contribution           =     -11.95973370 Ry
     ewald contribution        =     -36.84096132 Ry
     one-center paw contrib.   =     -55.41867100 Ry

     convergence has been achieved in  12 iterations

     Forces acting on atoms (cartesian axes, Ry/au):

     atom    1 type  1   force =     0.00000000   -0.00000000    0.00000000
     atom    2 type  2   force =    -0.00000000    0.00000000    0.00000000

     Total force =     0.000000     Total SCF correction =     0.000000


     Computing stress (Cartesian axis) and pressure

          total   stress  (Ry/bohr**3)                   (kbar)     P=        0.85
   0.00000577  -0.00000000  -0.00000000            0.85       -0.00       -0.00
  -0.00000000   0.00000577   0.00000000           -0.00        0.85        0.00
  -0.00000000  -0.00000000   0.00000577           -0.00       -0.00        0.85

     Energy error            =      4.1E-06 Ry
     Gradient error          =      6.6E-32 Ry/Bohr
     Cell gradient error     =      8.5E-01 kbar

     number of scf cycles    =   5
     number of bfgs steps    =   4

     enthalpy           old  =    -114.2072041913 Ry
     enthalpy           new  =    -114.2072083325 Ry

     CASE: enthalpy          _new < enthalpy          _old

     new trust radius        =       0.0034916832 bohr
     Message from routine volume:
     axis vectors are left-handed
     new conv_thr            =            1.0E-10 Ry

     new unit-cell volume =    310.40044 a.u.^3 (    45.99660 Ang^3 )
     density =      1.44787 g/cm^3

CELL_PARAMETERS (alat= 10.71947144)
   0.501330435   0.501330435   0.000000000
   0.501330435   0.000000000   0.501330435
   0.000000000   0.501330435   0.501330435

ATOMIC_POSITIONS (crystal)
K            -0.0000000000        0.0000000000        0.0000000000
H             0.5000000000        0.5000000000        0.5000000000



     Writing config-only to output data dir ./kh.save/
     NEW-OLD atomic charge density approx. for the potential

     Check: negative core charge=   -0.000002
     extrapolated charge   10.02966, renormalised to   10.00000

     total cpu time spent up to now is        5.2 secs

     Self-consistent Calculation

     iteration #  1     ecut=    75.00 Ry     beta= 0.70
     Davidson diagonalization with overlap
     ethr =  1.00E-06,  avg # of iterations =  2.2

     total cpu time spent up to now is        5.2 secs

     total energy              =    -114.20708435 Ry
     estimated scf accuracy    <       0.00006742 Ry

     iteration #  2     ecut=    75.00 Ry     beta= 0.70
     Davidson diagonalization with overlap
     ethr =  6.74E-07,  avg # of iterations =  2.4

     total cpu time spent up to now is        5.3 secs

     total energy              =    -114.20721682 Ry
     estimated scf accuracy    <       0.00009525 Ry

     iteration #  3     ecut=    75.00 Ry     beta= 0.70
     Davidson diagonalization with overlap
     ethr =  6.74E-07,  avg # of iterations =  1.0

     total cpu time spent up to now is        5.3 secs

     total energy              =    -114.20721927 Ry
     estimated scf accuracy    <       0.00002031 Ry

     iteration #  4     ecut=    75.00 Ry     beta= 0.70
     Davidson diagonalization with overlap
     ethr =  2.03E-07,  avg # of iterations =  1.0

     total cpu time spent up to now is        5.4 secs

     total energy              =    -114.20722310 Ry
     estimated scf accuracy    <       0.00001454 Ry

     iteration #  5     ecut=    75.00 Ry     beta= 0.70
     Davidson diagonalization with overlap
     ethr =  1.45E-07,  avg # of iterations =  1.0

     total cpu time spent up to now is        5.4 secs

     total energy              =    -114.20720944 Ry
     estimated scf accuracy    <       0.00002132 Ry

     iteration #  6     ecut=    75.00 Ry     beta= 0.70
     Davidson diagonalization with overlap
     ethr =  1.45E-07,  avg # of iterations =  2.0

     total cpu time spent up to now is        5.5 secs

     total energy              =    -114.20721235 Ry
     estimated scf accuracy    <       0.00000391 Ry

     iteration #  7     ecut=    75.00 Ry     beta= 0.70
     Davidson diagonalization with overlap
     ethr =  3.91E-08,  avg # of iterations =  1.5

     total cpu time spent up to now is        5.5 secs

     total energy              =    -114.20721242 Ry
     estimated scf accuracy    <       0.00000043 Ry

     iteration #  8     ecut=    75.00 Ry     beta= 0.70
     Davidson diagonalization with overlap
     ethr =  4.27E-09,  avg # of iterations =  1.7

     total cpu time spent up to now is        5.6 secs

     total energy              =    -114.20721243 Ry
     estimated scf accuracy    <       0.00000024 Ry

     iteration #  9     ecut=    75.00 Ry     beta= 0.70
     Davidson diagonalization with overlap
     ethr =  2.39E-09,  avg # of iterations =  1.0

     total cpu time spent up to now is        5.6 secs

     total energy              =    -114.20721248 Ry
     estimated scf accuracy    <       0.00000021 Ry

     iteration # 10     ecut=    75.00 Ry     beta= 0.70
     Davidson diagonalization with overlap
     ethr =  2.06E-09,  avg # of iterations =  1.0

     total cpu time spent up to now is        5.7 secs

     total energy              =    -114.20721235 Ry
     estimated scf accuracy    <       0.00000031 Ry

     iteration # 11     ecut=    75.00 Ry     beta= 0.70
     Davidson diagonalization with overlap
     ethr =  2.06E-09,  avg # of iterations =  1.0

     total cpu time spent up to now is        5.7 secs

     total energy              =    -114.20721237 Ry
     estimated scf accuracy    <          1.7E-09 Ry

     iteration # 12     ecut=    75.00 Ry     beta= 0.70
     Davidson diagonalization with overlap
     ethr =  1.71E-11,  avg # of iterations =  2.3

     total cpu time spent up to now is        5.8 secs

     total energy              =    -114.20721237 Ry
     estimated scf accuracy    <          1.7E-09 Ry

     iteration # 13     ecut=    75.00 Ry     beta= 0.70
     Davidson diagonalization with overlap
     ethr =  1.70E-11,  avg # of iterations =  1.8

     total cpu time spent up to now is        5.8 secs

     End of self-consistent calculation

          k = 0.0000 0.0000 0.0000 (  3383 PWs)   bands (ev):

   -27.5455 -10.8999 -10.8999 -10.8999  -0.4017   9.1910   9.1910   9.1910
     9.3726

          k =-0.1662 0.1662 0.1662 (  3383 PWs)   bands (ev):

   -27.5377 -10.9848 -10.9092 -10.9092  -0.0313   7.9140   9.2831   9.2831
     9.2972

          k =-0.3324 0.3324 0.3324 (  3386 PWs)   bands (ev):

   -27.5221 -11.1476 -10.9277 -10.9277   0.8682   5.9283   8.8757   8.8757
     9.6877

          k = 0.4987-0.4987-0.4987 (  3354 PWs)   bands (ev):

   -27.5142 -11.2258 -10.9369 -10.9369   1.4990   4.9341   8.6132   8.6132
    10.3334

          k =-0.0000 0.0000 0.3324 (  3375 PWs)   bands (ev):

   -27.5352 -10.9818 -10.9267 -10.9267   0.0616   8.0499   8.3964   9.3689
     9.3689

          k =-0.1662 0.1662 0.4987 (  3382 PWs)   bands (ev):

   -27.5222 -11.0983 -10.9501 -10.9493   0.6975   6.6374   7.8699   9.3177
    10.0462

          k = 0.6649-0.6649-0.3324 (  3361 PWs)   bands (ev):

   -27.5117 -11.1887 -10.9826 -10.9544   1.3784   5.4790   7.7855   8.9604
    10.6486

          k = 0.4987-0.4987-0.1662 (  3382 PWs)   bands (ev):

   -27.5143 -11.1654 -10.9934 -10.9371   1.2412   5.7237   7.6464   8.9642
    10.8511

          k = 0.3324-0.3324-0.0000 (  3393 PWs)   bands (ev):

   -27.5273 -11.0634 -10.9580 -10.9145   0.4855   7.1017   7.7999   9.4553
     9.8357

          k =-0.0000 0.0000 0.6649 (  3399 PWs)   bands (ev):

   -27.5145 -11.1227 -10.9800 -10.9800   0.8511   6.7744   7.3511  10.0737
    10.0737

          k = 0.8311-0.8311-0.1662 (  3377 PWs)   bands (ev):

   -27.5067 -11.1564 -11.0283 -10.9892   1.1752   6.5536   7.0715   9.9342
    10.2229

          k = 0.6649-0.6649-0.0000 (  3370 PWs)   bands (ev):

   -27.5066 -11.1139 -11.1000 -10.9679   1.3933   6.2255   6.8947   9.3795
    10.6609

          k = 0.0000-0.0000-0.9973 (  3378 PWs)   bands (ev):

   -27.5042 -11.1829 -11.0065 -11.0065   1.0842   6.8807   6.9536  11.1064
    11.1064

          k = 0.9973-0.6649-0.3324 (  3384 PWs)   bands (ev):

   -27.5118 -11.1358 -11.0203 -10.9646   1.1497   6.3673   7.1250   9.2335
    10.5625

          k = 0.8311-0.4987-0.1662 (  3360 PWs)   bands (ev):

   -27.5066 -11.1426 -11.0565 -10.9827   1.3936   6.1269   7.1189   8.9718
    11.1036

          k = 0.0000 0.3324-0.9973 (  3358 PWs)   bands (ev):

   -27.5041 -11.1394 -11.0512 -11.0146   1.2850   6.8390   6.8669   8.8769
    11.6235

     the Fermi energy is     2.1714 ev

!    total energy              =    -114.20721237 Ry
     estimated scf accuracy    <          1.6E-11 Ry
     smearing contrib. (-TS)   =       0.00000000 Ry
     internal energy E=F+TS    =    -114.20721237 Ry

     The total energy is F=E-TS. E is the sum of the following terms:
     one-electron contribution =     -25.03885493 Ry
     hartree contribution      =      15.01361724 Ry
     xc contribution           =     -11.95887886 Ry
     ewald contribution        =     -36.80443634 Ry
     one-center paw contrib.   =     -55.41865948 Ry

     convergence has been achieved in  13 iterations

     Forces acting on atoms (cartesian axes, Ry/au):

     atom    1 type  1   force =     0.00000000   -0.00000000   -0.00000000
     atom    2 type  2   force =    -0.00000000    0.00000000    0.00000000

     Total force =     0.000000     Total SCF correction =     0.000000


     Computing stress (Cartesian axis) and pressure

          total   stress  (Ry/bohr**3)                   (kbar)     P=        0.43
   0.00000292   0.00000000  -0.00000000            0.43        0.00       -0.00
   0.00000000   0.00000292   0.00000000            0.00        0.43        0.00
  -0.00000000   0.00000000   0.00000292           -0.00        0.00        0.43

     Energy error            =      4.0E-06 Ry
     Gradient error          =      2.6E-31 Ry/Bohr
     Cell gradient error     =      4.3E-01 kbar
     Message from routine volume:
     axis vectors are left-handed

     bfgs converged in   6 scf cycles and   5 bfgs steps
     (criteria: energy <  1.0E-04 Ry, force <  1.0E-03 Ry/Bohr, cell <  5.0E-01 kbar)

     End of BFGS Geometry Optimization

     Final enthalpy           =    -114.2072123667 Ry

     File ./kh.bfgs deleted, as requested
Begin final coordinates
     new unit-cell volume =    310.40044 a.u.^3 (    45.99660 Ang^3 )
     density =      1.44787 g/cm^3

CELL_PARAMETERS (alat= 10.71947144)
   0.501330435   0.501330435   0.000000000
   0.501330435   0.000000000   0.501330435
   0.000000000   0.501330435   0.501330435

ATOMIC_POSITIONS (crystal)
K            -0.0000000000        0.0000000000        0.0000000000
H             0.5000000000        0.5000000000        0.5000000000
End final coordinates



     Writing config-only to output data dir ./kh.save/

     Final scf calculation at the relaxed structure.
     The G-vectors are recalculated for the final unit cell
     Results may differ from those at the preceding step.
 
     Parallelization info
     --------------------
     sticks:   dense  smooth     PW     G-vecs:    dense   smooth      PW
     Min          82      66     19                 2119     1517     236
     Max          84      67     20                 2121     1520     239
     Sum        1495    1189    349                38157    27317    4285
 
     Using Slab Decomposition
 


     bravais-lattice index     =            0
     lattice parameter (alat)  =      10.7195  a.u.
     unit-cell volume          =     310.4004 (a.u.)^3
     number of atoms/cell      =            2
     number of atomic types    =            2
     number of electrons       =        10.00
     number of Kohn-Sham states=            9
     kinetic-energy cutoff     =      75.0000  Ry
     charge density cutoff     =     375.0000  Ry
     scf convergence threshold =      1.0E-10
     mixing beta               =       0.7000
     number of iterations used =            8  plain     mixing
     press convergence thresh. =      5.0E-01
     Exchange-correlation= PBE
                           (   1   4   3   4   0   0   0)

     celldm(1)=  10.719471  celldm(2)=   0.000000  celldm(3)=   0.000000
     celldm(4)=   0.000000  celldm(5)=   0.000000  celldm(6)=   0.000000

     crystal axes: (cart. coord. in units of alat)
               a(1) = (   0.501330   0.501330   0.000000 )  
               a(2) = (   0.501330   0.000000   0.501330 )  
               a(3) = (   0.000000   0.501330   0.501330 )  

     reciprocal axes: (cart. coord. in units 2 pi/alat)
               b(1) = (  0.997346  0.997346 -0.997346 )  
               b(2) = (  0.997346 -0.997346  0.997346 )  
               b(3) = ( -0.997346  0.997346  0.997346 )  


     PseudoPot. # 1 for K  read from file:
     /home/garima.iitr/.cache/.es/compmat/kh/K.pbe-spn-kjpaw_psl.1.0.0.UPF
     MD5 check sum: 34cc42130a09071ebe376fd42eb21491
     Pseudo is Projector augmented-wave + core cor, Zval =  9.0
     Generated using &quot;atomic&quot; code by A. Dal Corso  v.6.2.2
     Shape of augmentation charge: PSQ
     Using radial grid of 1165 points,  6 beta functions with: 
                l(1) =   0
                l(2) =   0
                l(3) =   1
                l(4) =   1
                l(5) =   2
                l(6) =   2
     Q(r) pseudized with 0 coefficients 


     PseudoPot. # 2 for H  read from file:
     /home/garima.iitr/.cache/.es/compmat/kh/H.pbe-rrkjus_psl.1.0.0.UPF
     MD5 check sum: 3f4114867bd07edc7f1424d066fc1888
     Pseudo is Ultrasoft, Zval =  1.0
     Generated using &quot;atomic&quot; code by A. Dal Corso  v.6.3MaX
     Using radial grid of  929 points,  2 beta functions with: 
                l(1) =   0
                l(2) =   0
     Q(r) pseudized with 0 coefficients 


     atomic species   valence    mass     pseudopotential
        K              9.00    39.09830     K ( 1.00)
        H              1.00     1.00750     H ( 1.00)

     48 Sym. Ops., with inversion, found



   Cartesian axes

     site n.     atom                  positions (alat units)
         1           K   tau(   1) = (  -0.0000000   0.0000000   0.0000000  )
         2           H   tau(   2) = (   0.5013304   0.5013304   0.5013304  )

     number of k points=    16  Marzari-Vanderbilt smearing, width (Ry)=  0.0050
                       cart. coord. in units 2pi/alat
        k(    1) = (   0.0000000   0.0000000   0.0000000), wk =   0.0092593
        k(    2) = (  -0.1662244   0.1662244   0.1662244), wk =   0.0740741
        k(    3) = (  -0.3324487   0.3324487   0.3324487), wk =   0.0740741
        k(    4) = (   0.4986731  -0.4986731  -0.4986731), wk =   0.0370370
        k(    5) = (  -0.0000000   0.0000000   0.3324487), wk =   0.0555556
        k(    6) = (  -0.1662244   0.1662244   0.4986731), wk =   0.2222222
        k(    7) = (   0.6648975  -0.6648975  -0.3324487), wk =   0.2222222
        k(    8) = (   0.4986731  -0.4986731  -0.1662244), wk =   0.2222222
        k(    9) = (   0.3324487  -0.3324487  -0.0000000), wk =   0.1111111
        k(   10) = (  -0.0000000   0.0000000   0.6648975), wk =   0.0555556
        k(   11) = (   0.8311218  -0.8311218  -0.1662244), wk =   0.2222222
        k(   12) = (   0.6648975  -0.6648975  -0.0000000), wk =   0.1111111
        k(   13) = (   0.0000000  -0.0000000  -0.9973462), wk =   0.0277778
        k(   14) = (   0.9973462  -0.6648975  -0.3324487), wk =   0.2222222
        k(   15) = (   0.8311218  -0.4986731  -0.1662244), wk =   0.2222222
        k(   16) = (   0.0000000   0.3324487  -0.9973462), wk =   0.1111111

     Dense  grid:    38157 G-vectors     FFT dimensions: (  48,  48,  48)

     Smooth grid:    27317 G-vectors     FFT dimensions: (  45,  45,  45)

     Estimated max dynamical RAM per process >       8.62 MB

     Estimated total dynamical RAM >       1.15 GB

     Check: negative core charge=   -0.000002

     Initial potential from superposition of free atoms

     starting charge       9.9812, renormalised to      10.0000
     Starting wfcs are    9 randomized atomic wfcs
     Checking if some PAW data can be deallocated... 

     total cpu time spent up to now is        6.1 secs

     Self-consistent Calculation

     iteration #  1     ecut=    75.00 Ry     beta= 0.70
     Davidson diagonalization with overlap
     c_bands:  1 eigenvalues not converged
     c_bands:  1 eigenvalues not converged
     ethr =  1.00E-06,  avg # of iterations = 18.6

     total cpu time spent up to now is        6.2 secs

     total energy              =    -114.17821223 Ry
     estimated scf accuracy    <       0.13694216 Ry

     iteration #  2     ecut=    75.00 Ry     beta= 0.70
     Davidson diagonalization with overlap
     ethr =  1.37E-03,  avg # of iterations =  1.9

     total cpu time spent up to now is        6.3 secs

     total energy              =    -114.20594767 Ry
     estimated scf accuracy    <       0.00599868 Ry

     iteration #  3     ecut=    75.00 Ry     beta= 0.70
     Davidson diagonalization with overlap
     ethr =  6.00E-05,  avg # of iterations =  3.1

     total cpu time spent up to now is        6.3 secs

     total energy              =    -114.20716674 Ry
     estimated scf accuracy    <       0.00017916 Ry

     iteration #  4     ecut=    75.00 Ry     beta= 0.70
     Davidson diagonalization with overlap
     ethr =  1.79E-06,  avg # of iterations =  6.2

     total cpu time spent up to now is        6.4 secs

     total energy              =    -114.20721489 Ry
     estimated scf accuracy    <       0.00000653 Ry

     iteration #  5     ecut=    75.00 Ry     beta= 0.70
     Davidson diagonalization with overlap
     ethr =  6.53E-08,  avg # of iterations =  2.0

     total cpu time spent up to now is        6.4 secs

     total energy              =    -114.20721717 Ry
     estimated scf accuracy    <       0.00000016 Ry

     iteration #  6     ecut=    75.00 Ry     beta= 0.70
     Davidson diagonalization with overlap
     ethr =  1.64E-09,  avg # of iterations =  2.8

     total cpu time spent up to now is        6.5 secs

     total energy              =    -114.20721727 Ry
     estimated scf accuracy    <          2.9E-09 Ry

     iteration #  7     ecut=    75.00 Ry     beta= 0.70
     Davidson diagonalization with overlap
     ethr =  2.94E-11,  avg # of iterations =  2.7

     total cpu time spent up to now is        6.5 secs

     total energy              =    -114.20721727 Ry
     estimated scf accuracy    <          1.7E-10 Ry

     iteration #  8     ecut=    75.00 Ry     beta= 0.70
     Davidson diagonalization with overlap
     ethr =  1.74E-12,  avg # of iterations =  2.2

     total cpu time spent up to now is        6.6 secs

     End of self-consistent calculation

          k = 0.0000 0.0000 0.0000 (  3479 PWs)   bands (ev):

   -27.5456 -10.9000 -10.9000 -10.9000  -0.4017   9.1910   9.1910   9.1910
     9.3726

          k =-0.1662 0.1662 0.1662 (  3425 PWs)   bands (ev):

   -27.5378 -10.9848 -10.9092 -10.9092  -0.0313   7.9140   9.2831   9.2831
     9.2972

          k =-0.3324 0.3324 0.3324 (  3428 PWs)   bands (ev):

   -27.5221 -11.1476 -10.9277 -10.9277   0.8682   5.9283   8.8758   8.8758
     9.6877

          k = 0.4987-0.4987-0.4987 (  3426 PWs)   bands (ev):

   -27.5143 -11.2258 -10.9369 -10.9369   1.4990   4.9341   8.6132   8.6132
    10.3333

          k =-0.0000 0.0000 0.3324 (  3423 PWs)   bands (ev):

   -27.5352 -10.9818 -10.9267 -10.9267   0.0615   8.0499   8.3963   9.3688
     9.3689

          k =-0.1662 0.1662 0.4987 (  3411 PWs)   bands (ev):

   -27.5222 -11.0984 -10.9501 -10.9493   0.6974   6.6374   7.8699   9.3177
    10.0462

          k = 0.6649-0.6649-0.3324 (  3397 PWs)   bands (ev):

   -27.5118 -11.1887 -10.9827 -10.9545   1.3783   5.4790   7.7854   8.9604
    10.6486

          k = 0.4987-0.4987-0.1662 (  3405 PWs)   bands (ev):

   -27.5144 -11.1654 -10.9934 -10.9371   1.2412   5.7237   7.6463   8.9642
    11.0372

          k = 0.3324-0.3324-0.0000 (  3421 PWs)   bands (ev):

   -27.5274 -11.0635 -10.9581 -10.9145   0.4854   7.1017   7.7998   9.4553
     9.8357

          k =-0.0000 0.0000 0.6649 (  3423 PWs)   bands (ev):

   -27.5146 -11.1227 -10.9800 -10.9800   0.8511   6.7744   7.3511  10.0737
    10.0737

          k = 0.8311-0.8311-0.1662 (  3409 PWs)   bands (ev):

   -27.5068 -11.1564 -11.0283 -10.9893   1.1752   6.5535   7.0714   9.9342
    10.2229

          k = 0.6649-0.6649-0.0000 (  3370 PWs)   bands (ev):

   -27.5067 -11.1139 -11.1000 -10.9680   1.3933   6.2254   6.8947   9.3795
    10.6609

          k = 0.0000-0.0000-0.9973 (  3378 PWs)   bands (ev):

   -27.5043 -11.1830 -11.0065 -11.0065   1.0842   6.8806   6.9536  11.1064
    11.1065

          k = 0.9973-0.6649-0.3324 (  3417 PWs)   bands (ev):

   -27.5119 -11.1358 -11.0203 -10.9646   1.1497   6.3673   7.1250   9.2335
    10.5625

          k = 0.8311-0.4987-0.1662 (  3382 PWs)   bands (ev):

   -27.5067 -11.1426 -11.0565 -10.9827   1.3936   6.1268   7.1189   8.9718
    11.1036

          k = 0.0000 0.3324-0.9973 (  3390 PWs)   bands (ev):

   -27.5042 -11.1394 -11.0512 -11.0146   1.2850   6.8389   6.8669   8.8769
    11.6243

     the Fermi energy is     2.1719 ev

!    total energy              =    -114.20721727 Ry
     estimated scf accuracy    <          5.5E-12 Ry
     smearing contrib. (-TS)   =       0.00000000 Ry
     internal energy E=F+TS    =    -114.20721727 Ry

     The total energy is F=E-TS. E is the sum of the following terms:
     one-electron contribution =     -25.03886890 Ry
     hartree contribution      =      15.01362983 Ry
     xc contribution           =     -11.95888228 Ry
     ewald contribution        =     -36.80443634 Ry
     one-center paw contrib.   =     -55.41865958 Ry

     convergence has been achieved in   8 iterations

     Forces acting on atoms (cartesian axes, Ry/au):

     atom    1 type  1   force =     0.00000000    0.00000000    0.00000000
     atom    2 type  2   force =    -0.00000000   -0.00000000    0.00000000

     Total force =     0.000000     Total SCF correction =     0.000000


     Computing stress (Cartesian axis) and pressure

          total   stress  (Ry/bohr**3)                   (kbar)     P=        0.43
   0.00000294   0.00000000  -0.00000000            0.43        0.00       -0.00
   0.00000000   0.00000294   0.00000000            0.00        0.43        0.00
  -0.00000000   0.00000000   0.00000294           -0.00        0.00        0.43


     Writing all to output data dir ./kh.save/
 
     init_run     :      0.35s CPU      0.47s WALL (       2 calls)
     electrons    :      4.10s CPU      4.37s WALL (       7 calls)
     update_pot   :      0.50s CPU      0.51s WALL (       5 calls)
     forces       :      0.28s CPU      0.28s WALL (       7 calls)
     stress       :      0.55s CPU      0.56s WALL (       7 calls)

     Called by init_run:
     wfcinit      :      0.01s CPU      0.05s WALL (       2 calls)
     potinit      :      0.13s CPU      0.16s WALL (       2 calls)
     hinit0       :      0.13s CPU      0.16s WALL (       2 calls)

     Called by electrons:
     c_bands      :      0.72s CPU      0.80s WALL (      80 calls)
     sum_band     :      0.41s CPU      0.42s WALL (      80 calls)
     v_of_rho     :      0.23s CPU      0.24s WALL (      85 calls)
     newd         :      0.11s CPU      0.11s WALL (      85 calls)
     PAW_pot      :      2.85s CPU      2.90s WALL (      90 calls)
     mix_rho      :      0.04s CPU      0.05s WALL (      80 calls)

     Called by c_bands:
     init_us_2    :      0.02s CPU      0.02s WALL (     362 calls)
     init_us_2:cp :      0.02s CPU      0.02s WALL (     362 calls)
     cegterg      :      0.52s CPU      0.56s WALL (     160 calls)

     Called by *egterg:
     cdiaghg      :      0.05s CPU      0.07s WALL (     438 calls)
     h_psi        :      0.44s CPU      0.48s WALL (     456 calls)
     s_psi        :      0.00s CPU      0.00s WALL (     456 calls)
     g_psi        :      0.00s CPU      0.00s WALL (     292 calls)

     Called by h_psi:
     h_psi:calbec :      0.01s CPU      0.02s WALL (     456 calls)
     vloc_psi     :      0.42s CPU      0.44s WALL (     456 calls)
     add_vuspsi   :      0.01s CPU      0.01s WALL (     456 calls)

     General routines
     calbec       :      0.02s CPU      0.03s WALL (     696 calls)
     fft          :      0.11s CPU      0.13s WALL (    1273 calls)
     ffts         :      0.02s CPU      0.03s WALL (     165 calls)
     fftw         :      0.46s CPU      0.49s WALL (    8242 calls)
     interpolate  :      0.03s CPU      0.04s WALL (      85 calls)
 
     Parallel routines
 
     PWSCF        :      6.17s CPU      6.77s WALL

 
   This run was terminated on:  17:21:26  27Nov2023            

=------------------------------------------------------------------------------=
   JOB DONE.
=------------------------------------------------------------------------------=
Job execution finished at: Mon Nov 27 17:21:27 IST 2023
