
     Program PWSCF v.6.7MaX starts on 17Oct2023 at 21:43:45 

     This program is part of the open-source Quantum ESPRESSO suite
     for quantum simulation of materials; please cite
         "P. Giannozzi et al., J. Phys.:Condens. Matter 21 395502 (2009);
         "P. Giannozzi et al., J. Phys.:Condens. Matter 29 465901 (2017);
          URL http://www.quantum-espresso.org", 
     in publications or presentations arising from this work. More details at
     http://www.quantum-espresso.org/quote

     Parallel version (MPI), running on     1 processors

     MPI processes distributed on     1 nodes
     Reading input from NaAlH4.in

     Current dimensions of program PWSCF are:
     Max number of different atomic species (ntypx) = 10
     Max number of k-points (npk) =  40000
     Max angular momentum in pseudopotentials (lmaxx) =  3
     file Al.pbe-n-kjpaw_psl.1.0.0.UPF: wavefunction(s)  3S 3P renormalized

     IMPORTANT: XC functional enforced from input :
     Exchange-correlation= PBE
                           (   1   4   3   4   0   0   0)
     Any further DFT definition will be discarded
     Please, verify this is what you really want


     Subspace diagonalization in iterative solution of the eigenvalue problem:
     a serial algorithm will be used

     Message from routine setup:
     using ibrav=0 with symmetry is DISCOURAGED, use correct ibrav instead

     G-vector sticks info
     --------------------
     sticks:   dense  smooth     PW     G-vecs:    dense   smooth      PW
     Sum        3457    2769    793               170853   122367   18699



     bravais-lattice index     =            0
     lattice parameter (alat)  =       9.3373  a.u.
     unit-cell volume          =     905.3038 (a.u.)^3
     number of atoms/cell      =           12
     number of atomic types    =            3
     number of electrons       =        32.00
     number of Kohn-Sham states=           20
     kinetic-energy cutoff     =     100.0000  Ry
     charge density cutoff     =     500.0000  Ry
     scf convergence threshold =      1.0E-08
     mixing beta               =       0.7000
     number of iterations used =            8  plain     mixing
     Exchange-correlation= PBE
                           (   1   4   3   4   0   0   0)

     celldm(1)=   9.337326  celldm(2)=   0.000000  celldm(3)=   0.000000
     celldm(4)=   0.000000  celldm(5)=   0.000000  celldm(6)=   0.000000

     crystal axes: (cart. coord. in units of alat)
               a(1) = (   1.000000   0.000000   0.000000 )  
               a(2) = (   0.000000   1.000000   0.000000 )  
               a(3) = (   0.500000   0.500000   1.112056 )  

     reciprocal axes: (cart. coord. in units 2 pi/alat)
               b(1) = (  1.000000  0.000000 -0.449617 )  
               b(2) = (  0.000000  1.000000 -0.449617 )  
               b(3) = (  0.000000  0.000000  0.899235 )  


     PseudoPot. # 1 for Al read from file:
     /home/vojta/Dokumenty/UA_CompPhys/pseudopotentials/Al.pbe-n-kjpaw_psl.1.0.0.UPF
     MD5 check sum: cfc449ca30b5f3223ec38ddd88ac046d
     Pseudo is Projector augmented-wave + core cor, Zval =  3.0
     Generated using "atomic" code by A. Dal Corso  v.5.1
     Shape of augmentation charge: PSQ
     Using radial grid of 1135 points,  6 beta functions with: 
                l(1) =   0
                l(2) =   0
                l(3) =   1
                l(4) =   1
                l(5) =   2
                l(6) =   2
     Q(r) pseudized with 0 coefficients 


     PseudoPot. # 2 for H  read from file:
     /home/vojta/Dokumenty/UA_CompPhys/pseudopotentials/H.pbe-rrkjus_psl.1.0.0.UPF
     MD5 check sum: f52b6d4d1c606e5624b1dc7b2218f220
     Pseudo is Ultrasoft, Zval =  1.0
     Generated using "atomic" code by A. Dal Corso  v.5.1
     Using radial grid of  929 points,  2 beta functions with: 
                l(1) =   0
                l(2) =   0
     Q(r) pseudized with 0 coefficients 


     PseudoPot. # 3 for Na read from file:
     /home/vojta/Dokumenty/UA_CompPhys/pseudopotentials/na_pbe_v1.5.uspp.F.UPF
     MD5 check sum: 44600605ef58000f06b90626533354dc
     Pseudo is Ultrasoft, Zval =  9.0
     Generated by new atomic code, or converted to UPF format
     Using radial grid of  819 points,  5 beta functions with: 
                l(1) =   0
                l(2) =   0
                l(3) =   1
                l(4) =   1
                l(5) =   2
     Q(r) pseudized with  8 coefficients,  rinner =    1.250   1.250   1.250
                                                       1.250   1.250

     atomic species   valence    mass     pseudopotential
        Al             3.00    26.98100     Al( 1.00)
        H              1.00     1.00750     H ( 1.00)
        Na             9.00    22.98900     Na( 1.00)

      8 Sym. Ops., with inversion, found ( 6 have fractional translation)



   Cartesian axes

     site n.     atom                  positions (alat units)
         1           Al  tau(   1) = (   1.0000000   0.2500000   0.2780141  )
         2           Al  tau(   2) = (   0.5000000   1.2500000   0.8340423  )
         3           Na  tau(   3) = (   0.5000000   0.7500000   0.2780141  )
         4           Na  tau(   4) = (   1.0000000   0.7500000   0.8340423  )
         5           H   tau(   5) = (   0.3578100   1.0135100   0.6538447  )
         6           H   tau(   6) = (   0.7635100   0.3921900   0.0978165  )
         7           H   tau(   7) = (   1.2635100   1.3921900   1.0142399  )
         8           H   tau(   8) = (   0.8578100   1.0135100   0.4582117  )
         9           H   tau(   9) = (   0.6421900   0.4864900   0.6538447  )
        10           H   tau(  10) = (   1.1421900   0.4864900   0.4582117  )
        11           H   tau(  11) = (   0.7364900   1.1078100   1.0142399  )
        12           H   tau(  12) = (   0.2364900   0.1078100   0.0978165  )

     number of k points=    30  Marzari-Vanderbilt smearing, width (Ry)=  0.0050
                       cart. coord. in units 2pi/alat
        k(    1) = (   0.0000000   0.0000000   0.0000000), wk =   0.0185185
        k(    2) = (   0.0000000   0.0000000   0.2997450), wk =   0.0370370
        k(    3) = (   0.0000000   0.1666667  -0.0749362), wk =   0.0740741
        k(    4) = (   0.0000000   0.1666667   0.2248087), wk =   0.0740741
        k(    5) = (   0.0000000   0.1666667  -0.3746812), wk =   0.0740741
        k(    6) = (   0.0000000   0.3333333  -0.1498725), wk =   0.1481481
        k(    7) = (   0.0000000   0.3333333  -0.4496175), wk =   0.0740741
        k(    8) = (   0.0000000  -0.5000000   0.2248087), wk =   0.0370370
        k(    9) = (   0.0000000  -0.5000000   0.5245537), wk =   0.0740741
        k(   10) = (   0.1666667   0.1666667  -0.1498725), wk =   0.0740741
        k(   11) = (   0.1666667   0.1666667  -0.4496175), wk =   0.0370370
        k(   12) = (   0.1666667   0.3333333  -0.2248087), wk =   0.0740741
        k(   13) = (   0.1666667   0.3333333   0.0749362), wk =   0.0740741
        k(   14) = (   0.1666667   0.3333333  -0.5245537), wk =   0.0740741
        k(   15) = (   0.1666667  -0.5000000   0.1498725), wk =   0.0740741
        k(   16) = (   0.1666667  -0.5000000   0.4496175), wk =   0.0370370
        k(   17) = (   0.1666667  -0.1666667  -0.0000000), wk =   0.0370370
        k(   18) = (   0.1666667  -0.1666667   0.2997450), wk =   0.0740741
        k(   19) = (   0.3333333   0.3333333  -0.2997450), wk =   0.1481481
        k(   20) = (   0.3333333   0.3333333   0.0000000), wk =   0.0740741
        k(   21) = (   0.3333333  -0.5000000   0.0749362), wk =   0.0740741
        k(   22) = (   0.3333333  -0.5000000  -0.2248087), wk =   0.0740741
        k(   23) = (  -0.5000000  -0.5000000   0.4496175), wk =   0.0185185
        k(   24) = (  -0.5000000  -0.5000000   0.7493625), wk =   0.0370370
        k(   25) = (   0.3333333   0.1666667   0.2248087), wk =   0.0740741
        k(   26) = (   0.3333333   0.1666667  -0.0749362), wk =   0.0740741
        k(   27) = (   0.3333333   0.1666667   0.5245537), wk =   0.0740741
        k(   28) = (  -0.5000000   0.1666667  -0.1498725), wk =   0.0740741
        k(   29) = (  -0.5000000   0.1666667  -0.4496175), wk =   0.0370370
        k(   30) = (  -0.5000000   0.3333333  -0.0749362), wk =   0.0740741

     Dense  grid:   170853 G-vectors     FFT dimensions: (  72,  72,  90)

     Smooth grid:   122367 G-vectors     FFT dimensions: (  60,  60,  80)

     Estimated max dynamical RAM per process >     824.94 MB

     Initial potential from superposition of free atoms

     starting charge   31.98276, renormalised to   32.00000
     Starting wfcs are   26 randomized atomic wfcs
     Checking if some PAW data can be deallocated... 

     total cpu time spent up to now is        6.5 secs

     Self-consistent Calculation

     iteration #  1     ecut=   100.00 Ry     beta= 0.70
     Davidson diagonalization with overlap
     ethr =  1.00E-02,  avg # of iterations =  3.9

     total cpu time spent up to now is       21.2 secs

     total energy              =    -279.10901198 Ry
     estimated scf accuracy    <       0.55200441 Ry

     iteration #  2     ecut=   100.00 Ry     beta= 0.70
     Davidson diagonalization with overlap
     ethr =  1.73E-03,  avg # of iterations =  2.0

     total cpu time spent up to now is       33.7 secs

     total energy              =    -279.14566228 Ry
     estimated scf accuracy    <       0.01003279 Ry

     iteration #  3     ecut=   100.00 Ry     beta= 0.70
     Davidson diagonalization with overlap
     ethr =  3.14E-05,  avg # of iterations =  9.0

     total cpu time spent up to now is       52.9 secs

     total energy              =    -279.14847281 Ry
     estimated scf accuracy    <       0.00036193 Ry

     iteration #  4     ecut=   100.00 Ry     beta= 0.70
     Davidson diagonalization with overlap
     ethr =  1.13E-06,  avg # of iterations =  5.2

     total cpu time spent up to now is       69.3 secs

     total energy              =    -279.14857703 Ry
     estimated scf accuracy    <       0.00004302 Ry

     iteration #  5     ecut=   100.00 Ry     beta= 0.70
     Davidson diagonalization with overlap
     ethr =  1.34E-07,  avg # of iterations =  2.2

     total cpu time spent up to now is       82.9 secs

     total energy              =    -279.14858459 Ry
     estimated scf accuracy    <       0.00000481 Ry

     iteration #  6     ecut=   100.00 Ry     beta= 0.70
     Davidson diagonalization with overlap
     ethr =  1.50E-08,  avg # of iterations =  2.0

     total cpu time spent up to now is       96.2 secs

     total energy              =    -279.14858514 Ry
     estimated scf accuracy    <       0.00000004 Ry

     iteration #  7     ecut=   100.00 Ry     beta= 0.70
     Davidson diagonalization with overlap
     ethr =  1.29E-10,  avg # of iterations =  5.0

     total cpu time spent up to now is      114.4 secs

     total energy              =    -279.14858518 Ry
     estimated scf accuracy    <       0.00000003 Ry

     iteration #  8     ecut=   100.00 Ry     beta= 0.70
     Davidson diagonalization with overlap
     ethr =  1.02E-10,  avg # of iterations =  2.0

     total cpu time spent up to now is      128.4 secs

     End of self-consistent calculation

          k = 0.0000 0.0000 0.0000 ( 15261 PWs)   bands (ev):

   -49.8258 -49.8243 -21.7590 -21.7512 -21.7512 -21.7453 -21.7453 -21.7350
    -6.2371  -2.9953  -2.2681  -1.2825  -1.2825  -0.8763  -0.8763  -0.1024
     4.7472   4.8205   5.4555   6.2872

          k = 0.0000 0.0000 0.2997 ( 15249 PWs)   bands (ev):

   -49.8254 -49.8247 -21.7538 -21.7538 -21.7531 -21.7427 -21.7427 -21.7411
    -5.7836  -4.5050  -1.7339  -1.7339  -0.9764  -0.2801  -0.2150  -0.2150
     4.7962   4.9046   6.5017   6.5017

          k = 0.0000 0.1667-0.0749 ( 15294 PWs)   bands (ev):

   -49.8257 -49.8244 -21.7586 -21.7519 -21.7517 -21.7450 -21.7448 -21.7355
    -6.0839  -3.2972  -2.0373  -1.6828  -1.2850  -0.9710  -0.7837  -0.0323
     4.8888   5.3416   5.6379   6.3121

          k = 0.0000 0.1667 0.2248 ( 15271 PWs)   bands (ev):

   -49.8255 -49.8245 -21.7560 -21.7533 -21.7530 -21.7435 -21.7434 -21.7383
    -5.8617  -4.0508  -2.0978  -1.5559  -1.2673  -0.5477  -0.4224  -0.0861
     4.8589   5.2722   6.2042   6.3657

          k = 0.0000 0.1667-0.3747 ( 15247 PWs)   bands (ev):

   -49.8252 -49.8248 -21.7554 -21.7541 -21.7503 -21.7446 -21.7424 -21.7408
    -5.4291  -4.8059  -2.2779  -1.7108  -0.6919  -0.3636  -0.1752  -0.1470
     5.0204   5.3352   5.9724   6.4273

          k = 0.0000 0.3333-0.1499 ( 15285 PWs)   bands (ev):

   -49.8255 -49.8245 -21.7578 -21.7533 -21.7524 -21.7441 -21.7439 -21.7368
    -5.6666  -3.8461  -2.3470  -1.9385  -1.2444  -0.7578  -0.6616  -0.0758
     5.1866   5.7147   6.0291   6.4411

          k = 0.0000 0.3333-0.4496 ( 15279 PWs)   bands (ev):

   -49.8252 -49.8248 -21.7574 -21.7536 -21.7502 -21.7456 -21.7428 -21.7388
    -5.0930  -4.7380  -2.9385  -1.4998  -0.8050  -0.6199  -0.2732  -0.2312
     5.1588   5.6225   6.0817   6.7907

          k = 0.0000-0.5000 0.2248 ( 15324 PWs)   bands (ev):

   -49.8254 -49.8247 -21.7573 -21.7542 -21.7527 -21.7436 -21.7432 -21.7377
    -5.3029  -4.2732  -2.5705  -2.0221  -1.1955  -0.6566  -0.3963  -0.2461
     5.4138   5.8207   5.9885   5.9897

          k = 0.0000-0.5000 0.5246 ( 15303 PWs)   bands (ev):

   -49.8254 -49.8247 -21.7583 -21.7528 -21.7522 -21.7448 -21.7436 -21.7371
    -5.3149  -4.2040  -2.8878  -1.5385  -1.2022  -0.7780  -0.5852  -0.1728
     5.2901   5.6898   6.0271   6.6349

          k = 0.1667 0.1667-0.1499 ( 15298 PWs)   bands (ev):

   -49.8256 -49.8245 -21.7577 -21.7533 -21.7519 -21.7451 -21.7433 -21.7366
    -5.8792  -3.6544  -1.9231  -1.8586  -1.4686  -0.9402  -0.5924  -0.0548
     5.3172   5.3372   5.8073   6.5164

          k = 0.1667 0.1667-0.4496 ( 15248 PWs)   bands (ev):

   -49.8250 -49.8250 -21.7554 -21.7552 -21.7479 -21.7474 -21.7411 -21.7409
    -5.0472  -5.0424  -2.2213  -2.1858  -0.4844  -0.3769  -0.2875  -0.2188
     5.3013   5.3705   6.0863   6.1369

          k = 0.1667 0.3333-0.2248 ( 15284 PWs)   bands (ev):

   -49.8254 -49.8247 -21.7570 -21.7548 -21.7521 -21.7451 -21.7419 -21.7378
    -5.4336  -4.0531  -2.5076  -1.7688  -1.4907  -0.8585  -0.5736  -0.1011
     5.3641   5.5987   6.2605   6.4094

          k = 0.1667 0.3333 0.0749 ( 15308 PWs)   bands (ev):

   -49.8255 -49.8245 -21.7585 -21.7537 -21.7511 -21.7463 -21.7429 -21.7361
    -5.6207  -3.6379  -2.2406  -1.8721  -1.4662  -1.2051  -0.8763  -0.0624
     5.2276   5.6504   6.0876   6.8868

          k = 0.1667 0.3333-0.5246 ( 15292 PWs)   bands (ev):

   -49.8252 -49.8248 -21.7572 -21.7546 -21.7507 -21.7459 -21.7416 -21.7388
    -5.0977  -4.5425  -2.7974  -1.8863  -0.9190  -0.6243  -0.3895  -0.3507
     5.3718   5.7863   5.9485   6.4240

          k = 0.1667-0.5000 0.1499 ( 15300 PWs)   bands (ev):

   -49.8254 -49.8247 -21.7578 -21.7547 -21.7518 -21.7455 -21.7419 -21.7375
    -5.1921  -4.2061  -2.6308  -1.8009  -1.4883  -0.9250  -0.4863  -0.3535
     5.4115   5.6552   6.1979   6.5411

          k = 0.1667-0.5000 0.4496 ( 15278 PWs)   bands (ev):

   -49.8254 -49.8247 -21.7583 -21.7544 -21.7503 -21.7469 -21.7420 -21.7371
    -5.2055  -4.1386  -2.8333  -1.6474  -1.3043  -1.0029  -0.8048  -0.1067
     5.0852   5.6686   6.1508   6.4794

          k = 0.1667-0.1667-0.0000 ( 15261 PWs)   bands (ev):

   -49.8257 -49.8244 -21.7589 -21.7524 -21.7510 -21.7460 -21.7443 -21.7352
    -5.9882  -3.2067  -2.0798  -1.5611  -1.4886  -1.3317  -0.8423  -0.0398
     5.4256   5.4795   5.5611   6.1230

          k = 0.1667-0.1667 0.2997 ( 15262 PWs)   bands (ev):

   -49.8254 -49.8247 -21.7554 -21.7547 -21.7520 -21.7444 -21.7418 -21.7396
    -5.5581  -4.3803  -2.1358  -2.0906  -0.9203  -0.5018  -0.3045  -0.1437
     5.2509   5.4307   5.9223   6.3462

          k = 0.3333 0.3333-0.2997 ( 15295 PWs)   bands (ev):

   -49.8252 -49.8248 -21.7568 -21.7564 -21.7508 -21.7468 -21.7401 -21.7385
    -4.9903  -4.2453  -2.5312  -2.2111  -1.4056  -0.9443  -0.6548  -0.4237
     5.4895   5.5914   5.8790   6.5793

          k = 0.3333 0.3333 0.0000 ( 15313 PWs)   bands (ev):

   -49.8254 -49.8246 -21.7585 -21.7549 -21.7503 -21.7475 -21.7417 -21.7364
    -5.3123  -3.7276  -1.9987  -1.9399  -1.8812  -1.3587  -1.1724  -0.2445
     4.8426   6.2828   6.6867   7.0541

          k = 0.3333-0.5000 0.0749 ( 15297 PWs)   bands (ev):

   -49.8252 -49.8248 -21.7579 -21.7560 -21.7501 -21.7478 -21.7403 -21.7376
    -4.8780  -4.1735  -2.5008  -2.0326  -1.5502  -1.2932  -0.9525  -0.4272
     4.9495   5.7628   6.4595   6.9727

          k = 0.3333-0.5000-0.2248 ( 15294 PWs)   bands (ev):

   -49.8252 -49.8248 -21.7574 -21.7565 -21.7506 -21.7474 -21.7400 -21.7379
    -4.8707  -4.1927  -2.4728  -1.9031  -1.7387  -1.3389  -0.8016  -0.5012
     5.3712   5.5367   6.2607   6.8271

          k =-0.5000-0.5000 0.4496 ( 15286 PWs)   bands (ev):

   -49.8250 -49.8250 -21.7572 -21.7572 -21.7491 -21.7491 -21.7387 -21.7387
    -4.4536  -4.4536  -2.1093  -2.1093  -1.8364  -1.8364  -0.6589  -0.6589
     5.0467   5.0467   7.1977   7.1978

          k =-0.5000-0.5000 0.7494 ( 15294 PWs)   bands (ev):

   -49.8250 -49.8250 -21.7572 -21.7572 -21.7491 -21.7491 -21.7387 -21.7387
    -4.4516  -4.4516  -2.2578  -2.2578  -1.5729  -1.5729  -0.7994  -0.7994
     5.3671   5.3671   6.4590   6.4590

          k = 0.3333 0.1667 0.2248 ( 15284 PWs)   bands (ev):

   -49.8254 -49.8247 -21.7570 -21.7549 -21.7520 -21.7452 -21.7418 -21.7378
    -5.4338  -4.0545  -2.4683  -1.8304  -1.5489  -0.7525  -0.4567  -0.2473
     5.4929   5.6361   5.9506   6.4096

          k = 0.3333 0.1667-0.0749 ( 15308 PWs)   bands (ev):

   -49.8255 -49.8245 -21.7586 -21.7536 -21.7512 -21.7461 -21.7431 -21.7361
    -5.6204  -3.6440  -2.2484  -1.8337  -1.5207  -1.1676  -0.7823  -0.1990
     5.2274   5.9232   6.3410   6.6832

          k = 0.3333 0.1667 0.5246 ( 15292 PWs)   bands (ev):

   -49.8252 -49.8248 -21.7570 -21.7550 -21.7503 -21.7463 -21.7412 -21.7390
    -5.1006  -4.5382  -2.7677  -1.9476  -1.0090  -0.5385  -0.4422  -0.2294
     5.3722   5.5136   5.8823   6.3413

          k =-0.5000 0.1667-0.1499 ( 15300 PWs)   bands (ev):

   -49.8254 -49.8247 -21.7576 -21.7549 -21.7516 -21.7457 -21.7416 -21.7376
    -5.1936  -4.2011  -2.6136  -1.8365  -1.5211  -0.8749  -0.6467  -0.1620
     5.2482   5.6402   6.1754   6.5276

          k =-0.5000 0.1667-0.4496 ( 15278 PWs)   bands (ev):

   -49.8254 -49.8247 -21.7585 -21.7540 -21.7508 -21.7464 -21.7424 -21.7370
    -5.2025  -4.1492  -2.8486  -1.6057  -1.2273  -0.8845  -0.8735  -0.3176
     5.2270   5.9271   6.2490   6.8616

          k =-0.5000 0.3333-0.0749 ( 15297 PWs)   bands (ev):

   -49.8252 -49.8248 -21.7578 -21.7562 -21.7499 -21.7480 -21.7402 -21.7377
    -4.8819  -4.1634  -2.4769  -2.0705  -1.6168  -1.2635  -0.9529  -0.3572
     4.9287   5.7098   6.2915   6.8339

     the Fermi energy is    -0.0012 ev

!    total energy              =    -279.14858518 Ry
     estimated scf accuracy    <          2.1E-10 Ry
     smearing contrib. (-TS)   =       0.00035859 Ry
     internal energy E=F+TS    =    -279.14894377 Ry

     The total energy is F=E-TS. E is the sum of the following terms:
     one-electron contribution =    -172.69246724 Ry
     hartree contribution      =      92.93394160 Ry
     xc contribution           =     -39.59936972 Ry
     ewald contribution        =     -90.40844891 Ry
     one-center paw contrib.   =     -69.38259949 Ry

     convergence has been achieved in   8 iterations

     Forces acting on atoms (cartesian axes, Ry/au):

     atom    1 type  1   force =     0.00000000    0.00000000    0.00000000
     atom    2 type  1   force =     0.00000000    0.00000000    0.00000000
     atom    3 type  3   force =     0.00000000    0.00000000    0.00000000
     atom    4 type  3   force =     0.00000000    0.00000000    0.00000000
     atom    5 type  2   force =    -0.00210007   -0.00292547   -0.00268076
     atom    6 type  2   force =    -0.00292547    0.00210007   -0.00268076
     atom    7 type  2   force =    -0.00292547    0.00210007    0.00268076
     atom    8 type  2   force =    -0.00210007   -0.00292547    0.00268076
     atom    9 type  2   force =     0.00210007    0.00292547   -0.00268076
     atom   10 type  2   force =     0.00210007    0.00292547    0.00268076
     atom   11 type  2   force =     0.00292547   -0.00210007    0.00268076
     atom   12 type  2   force =     0.00292547   -0.00210007   -0.00268076

     Total force =     0.012698     Total SCF correction =     0.000004


     Computing stress (Cartesian axis) and pressure

          total   stress  (Ry/bohr**3)                   (kbar)     P=       13.77
   0.00009542   0.00000000  -0.00000000           14.04        0.00       -0.00
  -0.00000000   0.00009542   0.00000000           -0.00       14.04        0.00
  -0.00000000   0.00000000   0.00008989           -0.00        0.00       13.22


     Writing output data file ./ecutwfc/NaAlH4_663_100_500.save/

     init_run     :     18.69s CPU      6.38s WALL (       1 calls)
     electrons    :    515.68s CPU    121.97s WALL (       1 calls)
     forces       :      9.83s CPU      2.76s WALL (       1 calls)
     stress       :     43.78s CPU     13.34s WALL (       1 calls)

     Called by init_run:
     wfcinit      :     16.15s CPU      4.36s WALL (       1 calls)
     potinit      :      0.52s CPU      0.56s WALL (       1 calls)
     hinit0       :      0.90s CPU      0.80s WALL (       1 calls)

     Called by electrons:
     c_bands      :    405.02s CPU     90.41s WALL (       8 calls)
     sum_band     :     99.78s CPU     24.34s WALL (       8 calls)
     v_of_rho     :      1.13s CPU      1.19s WALL (       9 calls)
     newd         :      8.96s CPU      5.06s WALL (       9 calls)
     PAW_pot      :      1.60s CPU      1.60s WALL (       9 calls)
     mix_rho      :      0.14s CPU      0.14s WALL (       8 calls)

     Called by c_bands:
     init_us_2    :     20.35s CPU      4.72s WALL (     570 calls)
     cegterg      :    347.84s CPU     76.12s WALL (     240 calls)

     Called by *egterg:
     cdiaghg      :      4.69s CPU      0.50s WALL (    1178 calls)
     h_psi        :    257.97s CPU     69.72s WALL (    1208 calls)
     s_psi        :     27.29s CPU      2.36s WALL (    1208 calls)
     g_psi        :      6.45s CPU      0.90s WALL (     938 calls)

     Called by h_psi:
     h_psi:calbec :     24.07s CPU      2.89s WALL (    1208 calls)
     vloc_psi     :    201.09s CPU     63.68s WALL (    1208 calls)
     add_vuspsi   :     30.63s CPU      2.67s WALL (    1208 calls)

     General routines
     calbec       :     33.80s CPU      4.29s WALL (    1598 calls)
     fft          :      0.56s CPU      0.53s WALL (     140 calls)
     ffts         :      0.14s CPU      0.05s WALL (      17 calls)
     fftw         :    203.89s CPU     65.10s WALL (   33740 calls)
     interpolate  :      0.07s CPU      0.07s WALL (       9 calls)

     Parallel routines

     PWSCF        :   9m48.29s CPU   2m24.79s WALL


   This run was terminated on:  21:46:10  17Oct2023            

=------------------------------------------------------------------------------=
   JOB DONE.
=------------------------------------------------------------------------------=
