
     Program PWSCF v.6.7MaX starts on 17Oct2023 at 21:34:13 

     This program is part of the open-source Quantum ESPRESSO suite
     for quantum simulation of materials; please cite
         "P. Giannozzi et al., J. Phys.:Condens. Matter 21 395502 (2009);
         "P. Giannozzi et al., J. Phys.:Condens. Matter 29 465901 (2017);
          URL http://www.quantum-espresso.org", 
     in publications or presentations arising from this work. More details at
     http://www.quantum-espresso.org/quote

     Parallel version (MPI), running on     1 processors

     MPI processes distributed on     1 nodes
     Reading input from NaAlH4.in

     Current dimensions of program PWSCF are:
     Max number of different atomic species (ntypx) = 10
     Max number of k-points (npk) =  40000
     Max angular momentum in pseudopotentials (lmaxx) =  3
     file Al.pbe-n-kjpaw_psl.1.0.0.UPF: wavefunction(s)  3S 3P renormalized

     IMPORTANT: XC functional enforced from input :
     Exchange-correlation= PBE
                           (   1   4   3   4   0   0   0)
     Any further DFT definition will be discarded
     Please, verify this is what you really want


     Subspace diagonalization in iterative solution of the eigenvalue problem:
     a serial algorithm will be used

     Message from routine setup:
     using ibrav=0 with symmetry is DISCOURAGED, use correct ibrav instead

     G-vector sticks info
     --------------------
     sticks:   dense  smooth     PW     G-vecs:    dense   smooth      PW
     Sum         349     277    101                 5399     3877     853



     bravais-lattice index     =            0
     lattice parameter (alat)  =       9.3373  a.u.
     unit-cell volume          =     905.3038 (a.u.)^3
     number of atoms/cell      =           12
     number of atomic types    =            3
     number of electrons       =        32.00
     number of Kohn-Sham states=           20
     kinetic-energy cutoff     =      10.0000  Ry
     charge density cutoff     =      50.0000  Ry
     scf convergence threshold =      1.0E-08
     mixing beta               =       0.7000
     number of iterations used =            8  plain     mixing
     Exchange-correlation= PBE
                           (   1   4   3   4   0   0   0)

     celldm(1)=   9.337326  celldm(2)=   0.000000  celldm(3)=   0.000000
     celldm(4)=   0.000000  celldm(5)=   0.000000  celldm(6)=   0.000000

     crystal axes: (cart. coord. in units of alat)
               a(1) = (   1.000000   0.000000   0.000000 )  
               a(2) = (   0.000000   1.000000   0.000000 )  
               a(3) = (   0.500000   0.500000   1.112056 )  

     reciprocal axes: (cart. coord. in units 2 pi/alat)
               b(1) = (  1.000000  0.000000 -0.449617 )  
               b(2) = (  0.000000  1.000000 -0.449617 )  
               b(3) = (  0.000000  0.000000  0.899235 )  


     PseudoPot. # 1 for Al read from file:
     /home/vojta/Dokumenty/UA_CompPhys/pseudopotentials/Al.pbe-n-kjpaw_psl.1.0.0.UPF
     MD5 check sum: cfc449ca30b5f3223ec38ddd88ac046d
     Pseudo is Projector augmented-wave + core cor, Zval =  3.0
     Generated using "atomic" code by A. Dal Corso  v.5.1
     Shape of augmentation charge: PSQ
     Using radial grid of 1135 points,  6 beta functions with: 
                l(1) =   0
                l(2) =   0
                l(3) =   1
                l(4) =   1
                l(5) =   2
                l(6) =   2
     Q(r) pseudized with 0 coefficients 


     PseudoPot. # 2 for H  read from file:
     /home/vojta/Dokumenty/UA_CompPhys/pseudopotentials/H.pbe-rrkjus_psl.1.0.0.UPF
     MD5 check sum: f52b6d4d1c606e5624b1dc7b2218f220
     Pseudo is Ultrasoft, Zval =  1.0
     Generated using "atomic" code by A. Dal Corso  v.5.1
     Using radial grid of  929 points,  2 beta functions with: 
                l(1) =   0
                l(2) =   0
     Q(r) pseudized with 0 coefficients 


     PseudoPot. # 3 for Na read from file:
     /home/vojta/Dokumenty/UA_CompPhys/pseudopotentials/na_pbe_v1.5.uspp.F.UPF
     MD5 check sum: 44600605ef58000f06b90626533354dc
     Pseudo is Ultrasoft, Zval =  9.0
     Generated by new atomic code, or converted to UPF format
     Using radial grid of  819 points,  5 beta functions with: 
                l(1) =   0
                l(2) =   0
                l(3) =   1
                l(4) =   1
                l(5) =   2
     Q(r) pseudized with  8 coefficients,  rinner =    1.250   1.250   1.250
                                                       1.250   1.250

     atomic species   valence    mass     pseudopotential
        Al             3.00    26.98100     Al( 1.00)
        H              1.00     1.00750     H ( 1.00)
        Na             9.00    22.98900     Na( 1.00)

      8 Sym. Ops., with inversion, found ( 6 have fractional translation)



   Cartesian axes

     site n.     atom                  positions (alat units)
         1           Al  tau(   1) = (   1.0000000   0.2500000   0.2780141  )
         2           Al  tau(   2) = (   0.5000000   1.2500000   0.8340423  )
         3           Na  tau(   3) = (   0.5000000   0.7500000   0.2780141  )
         4           Na  tau(   4) = (   1.0000000   0.7500000   0.8340423  )
         5           H   tau(   5) = (   0.3578100   1.0135100   0.6538447  )
         6           H   tau(   6) = (   0.7635100   0.3921900   0.0978165  )
         7           H   tau(   7) = (   1.2635100   1.3921900   1.0142399  )
         8           H   tau(   8) = (   0.8578100   1.0135100   0.4582117  )
         9           H   tau(   9) = (   0.6421900   0.4864900   0.6538447  )
        10           H   tau(  10) = (   1.1421900   0.4864900   0.4582117  )
        11           H   tau(  11) = (   0.7364900   1.1078100   1.0142399  )
        12           H   tau(  12) = (   0.2364900   0.1078100   0.0978165  )

     number of k points=    30  Marzari-Vanderbilt smearing, width (Ry)=  0.0050
                       cart. coord. in units 2pi/alat
        k(    1) = (   0.0000000   0.0000000   0.0000000), wk =   0.0185185
        k(    2) = (   0.0000000   0.0000000   0.2997450), wk =   0.0370370
        k(    3) = (   0.0000000   0.1666667  -0.0749362), wk =   0.0740741
        k(    4) = (   0.0000000   0.1666667   0.2248087), wk =   0.0740741
        k(    5) = (   0.0000000   0.1666667  -0.3746812), wk =   0.0740741
        k(    6) = (   0.0000000   0.3333333  -0.1498725), wk =   0.1481481
        k(    7) = (   0.0000000   0.3333333  -0.4496175), wk =   0.0740741
        k(    8) = (   0.0000000  -0.5000000   0.2248087), wk =   0.0370370
        k(    9) = (   0.0000000  -0.5000000   0.5245537), wk =   0.0740741
        k(   10) = (   0.1666667   0.1666667  -0.1498725), wk =   0.0740741
        k(   11) = (   0.1666667   0.1666667  -0.4496175), wk =   0.0370370
        k(   12) = (   0.1666667   0.3333333  -0.2248087), wk =   0.0740741
        k(   13) = (   0.1666667   0.3333333   0.0749362), wk =   0.0740741
        k(   14) = (   0.1666667   0.3333333  -0.5245537), wk =   0.0740741
        k(   15) = (   0.1666667  -0.5000000   0.1498725), wk =   0.0740741
        k(   16) = (   0.1666667  -0.5000000   0.4496175), wk =   0.0370370
        k(   17) = (   0.1666667  -0.1666667  -0.0000000), wk =   0.0370370
        k(   18) = (   0.1666667  -0.1666667   0.2997450), wk =   0.0740741
        k(   19) = (   0.3333333   0.3333333  -0.2997450), wk =   0.1481481
        k(   20) = (   0.3333333   0.3333333   0.0000000), wk =   0.0740741
        k(   21) = (   0.3333333  -0.5000000   0.0749362), wk =   0.0740741
        k(   22) = (   0.3333333  -0.5000000  -0.2248087), wk =   0.0740741
        k(   23) = (  -0.5000000  -0.5000000   0.4496175), wk =   0.0185185
        k(   24) = (  -0.5000000  -0.5000000   0.7493625), wk =   0.0370370
        k(   25) = (   0.3333333   0.1666667   0.2248087), wk =   0.0740741
        k(   26) = (   0.3333333   0.1666667  -0.0749362), wk =   0.0740741
        k(   27) = (   0.3333333   0.1666667   0.5245537), wk =   0.0740741
        k(   28) = (  -0.5000000   0.1666667  -0.1498725), wk =   0.0740741
        k(   29) = (  -0.5000000   0.1666667  -0.4496175), wk =   0.0370370
        k(   30) = (  -0.5000000   0.3333333  -0.0749362), wk =   0.0740741

     Dense  grid:     5399 G-vectors     FFT dimensions: (  24,  24,  30)

     Smooth grid:     3877 G-vectors     FFT dimensions: (  20,  20,  30)

     Estimated max dynamical RAM per process >      27.81 MB

     Check: negative core charge=   -0.000003

     Initial potential from superposition of free atoms

     starting charge   31.98276, renormalised to   32.00000

     negative rho (up, down):  7.593E-05 0.000E+00
     Starting wfcs are   26 randomized atomic wfcs
     Checking if some PAW data can be deallocated... 

     total cpu time spent up to now is        0.7 secs

     Self-consistent Calculation

     iteration #  1     ecut=    10.00 Ry     beta= 0.70
     Davidson diagonalization with overlap
     ethr =  1.00E-02,  avg # of iterations =  3.2

     total cpu time spent up to now is        1.4 secs

     total energy              =    -258.07712886 Ry
     estimated scf accuracy    <      10.44254534 Ry

     iteration #  2     ecut=    10.00 Ry     beta= 0.70
     Davidson diagonalization with overlap
     ethr =  1.00E-02,  avg # of iterations =  2.0

     total cpu time spent up to now is        2.0 secs

     total energy              =    -259.91568920 Ry
     estimated scf accuracy    <       0.10216957 Ry

     iteration #  3     ecut=    10.00 Ry     beta= 0.70
     Davidson diagonalization with overlap
     ethr =  3.19E-04,  avg # of iterations =  3.4

     total cpu time spent up to now is        2.7 secs

     total energy              =    -259.92280360 Ry
     estimated scf accuracy    <       0.00722106 Ry

     iteration #  4     ecut=    10.00 Ry     beta= 0.70
     Davidson diagonalization with overlap
     c_bands:  1 eigenvalues not converged
     ethr =  2.26E-05,  avg # of iterations =  7.4

     total cpu time spent up to now is        3.4 secs

     total energy              =    -259.92347976 Ry
     estimated scf accuracy    <       0.00039553 Ry

     iteration #  5     ecut=    10.00 Ry     beta= 0.70
     Davidson diagonalization with overlap
     ethr =  1.24E-06,  avg # of iterations =  4.7

     total cpu time spent up to now is        4.1 secs

     total energy              =    -259.92352364 Ry
     estimated scf accuracy    <       0.00000343 Ry

     iteration #  6     ecut=    10.00 Ry     beta= 0.70
     Davidson diagonalization with overlap
     ethr =  1.07E-08,  avg # of iterations =  2.5

     total cpu time spent up to now is        4.8 secs

     total energy              =    -259.92352480 Ry
     estimated scf accuracy    <       0.00000009 Ry

     iteration #  7     ecut=    10.00 Ry     beta= 0.70
     Davidson diagonalization with overlap
     ethr =  2.78E-10,  avg # of iterations =  3.5

     total cpu time spent up to now is        5.5 secs

     End of self-consistent calculation

          k = 0.0000 0.0000 0.0000 (   487 PWs)   bands (ev):

   -70.1837 -69.9637 -26.7797 -26.7753 -26.3987 -26.3940 -26.3214 -24.1249
    -5.8647  -2.4592  -1.8179  -0.7859  -0.7855  -0.3424  -0.3420   0.5238
     4.4827   5.1615   5.2295   6.6360

          k = 0.0000 0.0000 0.2997 (   490 PWs)   bands (ev):

   -70.5042 -70.0182 -27.8993 -27.8964 -26.2074 -25.8883 -25.3540 -25.3509
    -5.4020  -4.0777  -1.2555  -1.2555  -0.4580   0.2773   0.3754   0.3754
     4.8374   4.8459   6.8991   6.8995

          k = 0.0000 0.1667-0.0749 (   482 PWs)   bands (ev):

   -70.2363 -69.6111 -27.0950 -26.6748 -26.4885 -25.5076 -24.9367 -23.6824
    -5.7054  -2.7994  -1.5569  -1.2191  -0.7639  -0.4272  -0.2277   0.5890
     4.8297   5.3332   5.8238   6.6093

          k = 0.0000 0.1667 0.2248 (   484 PWs)   bands (ev):

   -70.2753 -69.7613 -27.3918 -26.9810 -26.1295 -25.8118 -25.5577 -23.6585
    -5.4798  -3.5891  -1.6811  -1.0602  -0.7396   0.0288   0.1553   0.5211
     4.8450   5.3230   6.4985   6.6944

          k = 0.0000 0.1667-0.3747 (   494 PWs)   bands (ev):

   -70.4314 -70.3484 -27.8706 -27.7711 -26.8815 -26.6249 -25.8257 -25.4428
    -5.0350  -4.3894  -1.8691  -1.2304  -0.1561   0.1906   0.4204   0.4488
     5.0130   5.3711   6.3361   6.7745

          k = 0.0000 0.3333-0.1499 (   482 PWs)   bands (ev):

   -70.3126 -69.5288 -27.7480 -26.5106 -26.1881 -25.3139 -24.4410 -24.1396
    -5.2693  -3.3785  -1.9615  -1.4643  -0.7097  -0.2066  -0.0809   0.5442
     5.2134   6.0398   6.1861   6.7875

          k = 0.0000 0.3333-0.4496 (   491 PWs)   bands (ev):

   -70.5988 -69.8698 -27.8888 -27.6583 -26.8787 -26.1532 -25.7595 -24.3398
    -4.6553  -4.3261  -2.6076  -0.9926  -0.2569  -0.0820   0.3211   0.3559
     5.2438   6.0097   6.3231   7.0979

          k = 0.0000-0.5000 0.2248 (   482 PWs)   bands (ev):

   -70.2921 -69.5075 -27.5834 -26.3413 -26.1475 -25.9813 -24.2580 -23.9106
    -4.8638  -3.8592  -2.1851  -1.5684  -0.6455  -0.0732   0.2102   0.3517
     5.7175   5.9055   6.2529   6.3781

          k = 0.0000-0.5000 0.5246 (   483 PWs)   bands (ev):

   -70.0272 -69.8363 -26.6556 -26.5500 -26.3690 -25.3355 -24.9401 -24.8967
    -4.8698  -3.7684  -2.5368  -1.0611  -0.6499  -0.2360  -0.0135   0.4428
     5.5128   5.9402   6.2457   6.7708

          k = 0.1667 0.1667-0.1499 (   482 PWs)   bands (ev):

   -70.2012 -69.6630 -27.4656 -27.1483 -26.2641 -25.6212 -24.7571 -23.1933
    -5.4930  -3.1669  -1.4602  -1.4174  -0.9549  -0.4098  -0.0145   0.5627
     5.2353   5.4159   6.1255   6.8200

          k = 0.1667 0.1667-0.4496 (   488 PWs)   bands (ev):

   -70.1726 -70.1706 -27.0480 -27.0445 -26.7955 -26.7915 -24.8961 -24.8794
    -4.6296  -4.6288  -1.7910  -1.7695   0.0831   0.2259   0.2858   0.3919
     5.3763   5.4263   6.3305   6.4985

          k = 0.1667 0.3333-0.2248 (   485 PWs)   bands (ev):

   -70.3084 -69.7217 -27.6414 -27.2765 -25.8684 -25.5755 -25.1780 -24.2244
    -5.0202  -3.5867  -2.1276  -1.3063  -0.9873  -0.3139  -0.0038   0.4980
     5.5519   5.6422   6.6639   6.7664

          k = 0.1667 0.3333 0.0749 (   484 PWs)   bands (ev):

   -70.1860 -69.7517 -27.3301 -26.7317 -26.2426 -25.7032 -24.9942 -24.2107
    -5.2090  -3.1559  -1.8325  -1.3882  -0.9826  -0.6938  -0.3207   0.5320
     5.2387   5.7469   6.4266   7.1999

          k = 0.1667 0.3333-0.5246 (   477 PWs)   bands (ev):

   -69.9700 -69.5452 -26.7896 -26.2940 -25.6004 -25.1691 -24.6156 -23.5736
    -4.6617  -4.0890  -2.4387  -1.4311  -0.3690  -0.0613   0.2047   0.2427
     5.5391   6.1671   6.2892   6.6007

          k = 0.1667-0.5000 0.1499 (   484 PWs)   bands (ev):

   -70.2294 -69.7045 -27.5109 -26.4859 -26.0917 -25.8305 -24.9998 -24.3504
    -4.7527  -3.7696  -2.2438  -1.3335  -0.9876  -0.3967   0.0801   0.2216
     5.5498   5.9350   6.4627   6.7162

          k = 0.1667-0.5000 0.4496 (   481 PWs)   bands (ev):

   -70.0808 -69.6576 -27.3374 -26.7607 -26.1019 -25.1221 -24.6981 -23.7896
    -4.7455  -3.6759  -2.4915  -1.1500  -0.7722  -0.4596  -0.2594   0.5236
     5.0898   6.0755   6.2504   6.8603

          k = 0.1667-0.1667-0.0000 (   485 PWs)   bands (ev):

   -70.1746 -69.8503 -27.2941 -27.0017 -26.2681 -25.6941 -25.0472 -24.4804
    -5.6057  -2.6872  -1.6048  -1.1101  -1.0089  -0.8311  -0.3056   0.5600
     5.3350   5.3659   5.9224   6.4750

          k = 0.1667-0.1667 0.2997 (   480 PWs)   bands (ev):

   -70.1622 -69.6102 -26.9430 -26.8002 -25.9273 -25.2804 -25.1573 -23.4827
    -5.1640  -3.9210  -1.7019  -1.6614  -0.3589   0.0794   0.3017   0.4601
     5.2287   5.6139   6.2098   6.7232

          k = 0.3333 0.3333-0.2997 (   485 PWs)   bands (ev):

   -70.2363 -69.7607 -27.3342 -26.5931 -26.3237 -25.9653 -25.6528 -23.8356
    -4.5543  -3.7742  -2.1445  -1.8015  -0.8926  -0.4151  -0.1214   0.1572
     5.6474   5.6559   6.1942   6.8714

          k = 0.3333 0.3333 0.0000 (   474 PWs)   bands (ev):

   -69.6322 -69.5941 -26.5233 -26.0172 -25.0819 -24.4995 -24.4378 -23.7540
    -4.8792  -3.2161  -1.5535  -1.4836  -1.3977  -0.8750  -0.6380   0.3104
     4.8773   6.3947   7.0898   7.3342

          k = 0.3333-0.5000 0.0749 (   484 PWs)   bands (ev):

   -70.0242 -69.8873 -27.3493 -26.7251 -26.1974 -25.6960 -24.7833 -24.4217
    -4.4293  -3.6930  -2.1007  -1.5892  -1.0914  -0.8022  -0.4279   0.1147
     5.0105   5.8940   6.7970   7.3208

          k = 0.3333-0.5000-0.2248 (   486 PWs)   bands (ev):

   -70.0725 -69.9663 -27.1274 -26.7505 -26.3354 -25.8959 -25.2337 -24.7679
    -4.4130  -3.7258  -2.0800  -1.4045  -1.2778  -0.8965  -0.2868   0.0576
     5.4052   5.7000   6.5216   7.2383

          k =-0.5000-0.5000 0.4496 (   478 PWs)   bands (ev):

   -69.7366 -69.7365 -26.3923 -26.3864 -25.3516 -25.3514 -24.4238 -24.4178
    -3.9754  -3.9753  -1.6289  -1.6287  -1.4380  -1.4377  -0.1073  -0.1068
     5.1149   5.1154   7.4841   7.4849

          k =-0.5000-0.5000 0.7494 (   480 PWs)   bands (ev):

   -69.8314 -69.8314 -26.3590 -26.3546 -25.5455 -25.5452 -24.7521 -24.7481
    -3.9730  -3.9729  -1.8397  -1.8392  -1.1024  -1.1019  -0.2760  -0.2758
     5.4359   5.4368   6.8235   6.8245

          k = 0.3333 0.1667 0.2248 (   485 PWs)   bands (ev):

   -70.3066 -69.7213 -27.6436 -27.2731 -25.8588 -25.5729 -25.1727 -24.2217
    -5.0213  -3.5847  -2.0953  -1.3629  -1.0423  -0.1961   0.1227   0.3430
     5.4886   5.8280   6.3444   6.7368

          k = 0.3333 0.1667-0.0749 (   484 PWs)   bands (ev):

   -70.1867 -69.7533 -27.3350 -26.7317 -26.2411 -25.7068 -24.9935 -24.2231
    -5.2174  -3.1649  -1.8272  -1.3697  -1.0233  -0.6587  -0.2211   0.3594
     5.2853   6.0405   6.6979   7.0276

          k = 0.3333 0.1667 0.5246 (   477 PWs)   bands (ev):

   -69.9671 -69.5436 -26.7862 -26.2762 -25.5913 -25.1757 -24.6131 -23.5612
    -4.6576  -4.0759  -2.4146  -1.4801  -0.4537   0.0492   0.1476   0.3940
     5.3818   5.8568   6.1818   6.5677

          k =-0.5000 0.1667-0.1499 (   484 PWs)   bands (ev):

   -70.2314 -69.7024 -27.5124 -26.4858 -26.0855 -25.8406 -24.9925 -24.3499
    -4.7479  -3.7664  -2.2395  -1.3603  -1.0156  -0.3406  -0.0872   0.4297
     5.3088   5.8652   6.4186   6.9233

          k =-0.5000 0.1667-0.4496 (   481 PWs)   bands (ev):

   -70.0802 -69.6620 -27.3361 -26.7649 -26.0992 -25.1303 -24.7041 -23.8107
    -4.7546  -3.6958  -2.4880  -1.1012  -0.7273  -0.3592  -0.3317   0.2543
     5.3631   6.2932   6.6459   6.9336

          k =-0.5000 0.3333-0.0749 (   484 PWs)   bands (ev):

   -70.0238 -69.8872 -27.3500 -26.7285 -26.1947 -25.6882 -24.7864 -24.4235
    -4.4248  -3.6913  -2.1055  -1.6184  -1.1330  -0.7713  -0.4471   0.2168
     4.9685   5.8099   6.6643   7.1092

     the Fermi energy is     2.7237 ev

!    total energy              =    -259.92352485 Ry
     estimated scf accuracy    <          5.9E-09 Ry
     smearing contrib. (-TS)   =       0.00000000 Ry
     internal energy E=F+TS    =    -259.92352485 Ry

     The total energy is F=E-TS. E is the sum of the following terms:
     one-electron contribution =    -129.30652063 Ry
     hartree contribution      =      63.13254189 Ry
     xc contribution           =     -33.95637859 Ry
     ewald contribution        =     -90.40844901 Ry
     one-center paw contrib.   =     -69.38471852 Ry

     convergence has been achieved in   7 iterations

     Forces acting on atoms (cartesian axes, Ry/au):

     atom    1 type  1   force =     0.00000000    0.00000000   -0.00000000
     atom    2 type  1   force =     0.00000000    0.00000000    0.00000000
     atom    3 type  3   force =     0.00000000    0.00000000    0.00000000
     atom    4 type  3   force =     0.00000000    0.00000000    0.00000000
     atom    5 type  2   force =    -0.01055508   -0.01805581   -0.01172379
     atom    6 type  2   force =    -0.01805581    0.01055508   -0.01172379
     atom    7 type  2   force =    -0.01805581    0.01055508    0.01172379
     atom    8 type  2   force =    -0.01055508   -0.01805581    0.01172379
     atom    9 type  2   force =     0.01055508    0.01805581   -0.01172379
     atom   10 type  2   force =     0.01055508    0.01805581    0.01172379
     atom   11 type  2   force =     0.01805581   -0.01055508    0.01172379
     atom   12 type  2   force =     0.01805581   -0.01055508   -0.01172379

     Total force =     0.067816     Total SCF correction =     0.000009


     Computing stress (Cartesian axis) and pressure

          total   stress  (Ry/bohr**3)                   (kbar)     P=    -6224.26
  -0.04230595  -0.00000000  -0.00000000        -6223.42       -0.00       -0.00
   0.00000000  -0.04230595   0.00000000            0.00    -6223.42        0.00
  -0.00000000   0.00000000  -0.04232298           -0.00        0.00    -6225.93


     Writing output data file ./ecutwfc/NaAlH4_663_10_50.save/

     init_run     :      1.34s CPU      0.57s WALL (       1 calls)
     electrons    :     17.13s CPU      4.79s WALL (       1 calls)
     forces       :      0.41s CPU      0.09s WALL (       1 calls)
     stress       :      1.94s CPU      0.48s WALL (       1 calls)

     Called by init_run:
     wfcinit      :      0.68s CPU      0.16s WALL (       1 calls)
     potinit      :      0.19s CPU      0.20s WALL (       1 calls)
     hinit0       :      0.41s CPU      0.19s WALL (       1 calls)

     Called by electrons:
     c_bands      :     11.30s CPU      2.66s WALL (       7 calls)
     sum_band     :      2.47s CPU      0.55s WALL (       7 calls)
     v_of_rho     :      0.18s CPU      0.05s WALL (       8 calls)
     newd         :      0.31s CPU      0.08s WALL (       8 calls)
     PAW_pot      :      3.05s CPU      1.64s WALL (       8 calls)
     mix_rho      :      0.01s CPU      0.01s WALL (       7 calls)

     Called by c_bands:
     init_us_2    :      0.54s CPU      0.12s WALL (     510 calls)
     cegterg      :      9.82s CPU      2.31s WALL (     210 calls)

     Called by *egterg:
     cdiaghg      :      1.47s CPU      0.33s WALL (    1011 calls)
     h_psi        :      7.81s CPU      1.85s WALL (    1041 calls)
     s_psi        :      0.22s CPU      0.05s WALL (    1041 calls)
     g_psi        :      0.10s CPU      0.02s WALL (     801 calls)

     Called by h_psi:
     h_psi:calbec :      0.28s CPU      0.08s WALL (    1041 calls)
     vloc_psi     :      7.24s CPU      1.70s WALL (    1041 calls)
     add_vuspsi   :      0.23s CPU      0.06s WALL (    1041 calls)

     General routines
     calbec       :      0.58s CPU      0.17s WALL (    1401 calls)
     fft          :      0.13s CPU      0.04s WALL (     127 calls)
     ffts         :      0.00s CPU      0.00s WALL (      15 calls)
     fftw         :      6.48s CPU      1.51s WALL (   27786 calls)
     interpolate  :      0.00s CPU      0.00s WALL (       8 calls)

     Parallel routines

     PWSCF        :     20.97s CPU      6.04s WALL


   This run was terminated on:  21:34:19  17Oct2023            

=------------------------------------------------------------------------------=
   JOB DONE.
=------------------------------------------------------------------------------=
