
     Program PWSCF v.6.7MaX starts on 17Oct2023 at 21:39: 4 

     This program is part of the open-source Quantum ESPRESSO suite
     for quantum simulation of materials; please cite
         "P. Giannozzi et al., J. Phys.:Condens. Matter 21 395502 (2009);
         "P. Giannozzi et al., J. Phys.:Condens. Matter 29 465901 (2017);
          URL http://www.quantum-espresso.org", 
     in publications or presentations arising from this work. More details at
     http://www.quantum-espresso.org/quote

     Parallel version (MPI), running on     1 processors

     MPI processes distributed on     1 nodes
     Reading input from NaAlH4.in

     Current dimensions of program PWSCF are:
     Max number of different atomic species (ntypx) = 10
     Max number of k-points (npk) =  40000
     Max angular momentum in pseudopotentials (lmaxx) =  3
     file Al.pbe-n-kjpaw_psl.1.0.0.UPF: wavefunction(s)  3S 3P renormalized

     IMPORTANT: XC functional enforced from input :
     Exchange-correlation= PBE
                           (   1   4   3   4   0   0   0)
     Any further DFT definition will be discarded
     Please, verify this is what you really want


     Subspace diagonalization in iterative solution of the eigenvalue problem:
     a serial algorithm will be used

     Message from routine setup:
     using ibrav=0 with symmetry is DISCOURAGED, use correct ibrav instead

     G-vector sticks info
     --------------------
     sticks:   dense  smooth     PW     G-vecs:    dense   smooth      PW
     Sum         681     553    185                15261    10953    2097



     bravais-lattice index     =            0
     lattice parameter (alat)  =       9.3373  a.u.
     unit-cell volume          =     905.3038 (a.u.)^3
     number of atoms/cell      =           12
     number of atomic types    =            3
     number of electrons       =        32.00
     number of Kohn-Sham states=           20
     kinetic-energy cutoff     =      20.0000  Ry
     charge density cutoff     =     100.0000  Ry
     scf convergence threshold =      1.0E-08
     mixing beta               =       0.7000
     number of iterations used =            8  plain     mixing
     Exchange-correlation= PBE
                           (   1   4   3   4   0   0   0)

     celldm(1)=   9.337326  celldm(2)=   0.000000  celldm(3)=   0.000000
     celldm(4)=   0.000000  celldm(5)=   0.000000  celldm(6)=   0.000000

     crystal axes: (cart. coord. in units of alat)
               a(1) = (   1.000000   0.000000   0.000000 )  
               a(2) = (   0.000000   1.000000   0.000000 )  
               a(3) = (   0.500000   0.500000   1.112056 )  

     reciprocal axes: (cart. coord. in units 2 pi/alat)
               b(1) = (  1.000000  0.000000 -0.449617 )  
               b(2) = (  0.000000  1.000000 -0.449617 )  
               b(3) = (  0.000000  0.000000  0.899235 )  


     PseudoPot. # 1 for Al read from file:
     /home/vojta/Dokumenty/UA_CompPhys/pseudopotentials/Al.pbe-n-kjpaw_psl.1.0.0.UPF
     MD5 check sum: cfc449ca30b5f3223ec38ddd88ac046d
     Pseudo is Projector augmented-wave + core cor, Zval =  3.0
     Generated using "atomic" code by A. Dal Corso  v.5.1
     Shape of augmentation charge: PSQ
     Using radial grid of 1135 points,  6 beta functions with: 
                l(1) =   0
                l(2) =   0
                l(3) =   1
                l(4) =   1
                l(5) =   2
                l(6) =   2
     Q(r) pseudized with 0 coefficients 


     PseudoPot. # 2 for H  read from file:
     /home/vojta/Dokumenty/UA_CompPhys/pseudopotentials/H.pbe-rrkjus_psl.1.0.0.UPF
     MD5 check sum: f52b6d4d1c606e5624b1dc7b2218f220
     Pseudo is Ultrasoft, Zval =  1.0
     Generated using "atomic" code by A. Dal Corso  v.5.1
     Using radial grid of  929 points,  2 beta functions with: 
                l(1) =   0
                l(2) =   0
     Q(r) pseudized with 0 coefficients 


     PseudoPot. # 3 for Na read from file:
     /home/vojta/Dokumenty/UA_CompPhys/pseudopotentials/na_pbe_v1.5.uspp.F.UPF
     MD5 check sum: 44600605ef58000f06b90626533354dc
     Pseudo is Ultrasoft, Zval =  9.0
     Generated by new atomic code, or converted to UPF format
     Using radial grid of  819 points,  5 beta functions with: 
                l(1) =   0
                l(2) =   0
                l(3) =   1
                l(4) =   1
                l(5) =   2
     Q(r) pseudized with  8 coefficients,  rinner =    1.250   1.250   1.250
                                                       1.250   1.250

     atomic species   valence    mass     pseudopotential
        Al             3.00    26.98100     Al( 1.00)
        H              1.00     1.00750     H ( 1.00)
        Na             9.00    22.98900     Na( 1.00)

      8 Sym. Ops., with inversion, found ( 6 have fractional translation)



   Cartesian axes

     site n.     atom                  positions (alat units)
         1           Al  tau(   1) = (   1.0000000   0.2500000   0.2780141  )
         2           Al  tau(   2) = (   0.5000000   1.2500000   0.8340423  )
         3           Na  tau(   3) = (   0.5000000   0.7500000   0.2780141  )
         4           Na  tau(   4) = (   1.0000000   0.7500000   0.8340423  )
         5           H   tau(   5) = (   0.3578100   1.0135100   0.6538447  )
         6           H   tau(   6) = (   0.7635100   0.3921900   0.0978165  )
         7           H   tau(   7) = (   1.2635100   1.3921900   1.0142399  )
         8           H   tau(   8) = (   0.8578100   1.0135100   0.4582117  )
         9           H   tau(   9) = (   0.6421900   0.4864900   0.6538447  )
        10           H   tau(  10) = (   1.1421900   0.4864900   0.4582117  )
        11           H   tau(  11) = (   0.7364900   1.1078100   1.0142399  )
        12           H   tau(  12) = (   0.2364900   0.1078100   0.0978165  )

     number of k points=    30  Marzari-Vanderbilt smearing, width (Ry)=  0.0050
                       cart. coord. in units 2pi/alat
        k(    1) = (   0.0000000   0.0000000   0.0000000), wk =   0.0185185
        k(    2) = (   0.0000000   0.0000000   0.2997450), wk =   0.0370370
        k(    3) = (   0.0000000   0.1666667  -0.0749362), wk =   0.0740741
        k(    4) = (   0.0000000   0.1666667   0.2248087), wk =   0.0740741
        k(    5) = (   0.0000000   0.1666667  -0.3746812), wk =   0.0740741
        k(    6) = (   0.0000000   0.3333333  -0.1498725), wk =   0.1481481
        k(    7) = (   0.0000000   0.3333333  -0.4496175), wk =   0.0740741
        k(    8) = (   0.0000000  -0.5000000   0.2248087), wk =   0.0370370
        k(    9) = (   0.0000000  -0.5000000   0.5245537), wk =   0.0740741
        k(   10) = (   0.1666667   0.1666667  -0.1498725), wk =   0.0740741
        k(   11) = (   0.1666667   0.1666667  -0.4496175), wk =   0.0370370
        k(   12) = (   0.1666667   0.3333333  -0.2248087), wk =   0.0740741
        k(   13) = (   0.1666667   0.3333333   0.0749362), wk =   0.0740741
        k(   14) = (   0.1666667   0.3333333  -0.5245537), wk =   0.0740741
        k(   15) = (   0.1666667  -0.5000000   0.1498725), wk =   0.0740741
        k(   16) = (   0.1666667  -0.5000000   0.4496175), wk =   0.0370370
        k(   17) = (   0.1666667  -0.1666667  -0.0000000), wk =   0.0370370
        k(   18) = (   0.1666667  -0.1666667   0.2997450), wk =   0.0740741
        k(   19) = (   0.3333333   0.3333333  -0.2997450), wk =   0.1481481
        k(   20) = (   0.3333333   0.3333333   0.0000000), wk =   0.0740741
        k(   21) = (   0.3333333  -0.5000000   0.0749362), wk =   0.0740741
        k(   22) = (   0.3333333  -0.5000000  -0.2248087), wk =   0.0740741
        k(   23) = (  -0.5000000  -0.5000000   0.4496175), wk =   0.0185185
        k(   24) = (  -0.5000000  -0.5000000   0.7493625), wk =   0.0370370
        k(   25) = (   0.3333333   0.1666667   0.2248087), wk =   0.0740741
        k(   26) = (   0.3333333   0.1666667  -0.0749362), wk =   0.0740741
        k(   27) = (   0.3333333   0.1666667   0.5245537), wk =   0.0740741
        k(   28) = (  -0.5000000   0.1666667  -0.1498725), wk =   0.0740741
        k(   29) = (  -0.5000000   0.1666667  -0.4496175), wk =   0.0370370
        k(   30) = (  -0.5000000   0.3333333  -0.0749362), wk =   0.0740741

     Dense  grid:    15261 G-vectors     FFT dimensions: (  30,  30,  40)

     Smooth grid:    10953 G-vectors     FFT dimensions: (  30,  30,  36)

     Estimated max dynamical RAM per process >      75.27 MB

     Initial potential from superposition of free atoms

     starting charge   31.98276, renormalised to   32.00000
     Starting wfcs are   26 randomized atomic wfcs
     Checking if some PAW data can be deallocated... 

     total cpu time spent up to now is        1.5 secs

     Self-consistent Calculation

     iteration #  1     ecut=    20.00 Ry     beta= 0.70
     Davidson diagonalization with overlap
     ethr =  1.00E-02,  avg # of iterations =  3.9

     total cpu time spent up to now is        3.9 secs

     total energy              =    -278.27369022 Ry
     estimated scf accuracy    <       0.60211186 Ry

     iteration #  2     ecut=    20.00 Ry     beta= 0.70
     Davidson diagonalization with overlap
     ethr =  1.88E-03,  avg # of iterations =  2.0

     total cpu time spent up to now is        5.8 secs

     total energy              =    -278.33121115 Ry
     estimated scf accuracy    <       0.01464684 Ry

     iteration #  3     ecut=    20.00 Ry     beta= 0.70
     Davidson diagonalization with overlap
     ethr =  4.58E-05,  avg # of iterations =  9.0

     total cpu time spent up to now is        8.5 secs

     total energy              =    -278.33491699 Ry
     estimated scf accuracy    <       0.00074472 Ry

     iteration #  4     ecut=    20.00 Ry     beta= 0.70
     Davidson diagonalization with overlap
     ethr =  2.33E-06,  avg # of iterations =  5.4

     total cpu time spent up to now is       11.0 secs

     total energy              =    -278.33529123 Ry
     estimated scf accuracy    <       0.00005371 Ry

     iteration #  5     ecut=    20.00 Ry     beta= 0.70
     Davidson diagonalization with overlap
     ethr =  1.68E-07,  avg # of iterations =  2.0

     total cpu time spent up to now is       13.1 secs

     total energy              =    -278.33529816 Ry
     estimated scf accuracy    <       0.00000194 Ry

     iteration #  6     ecut=    20.00 Ry     beta= 0.70
     Davidson diagonalization with overlap
     ethr =  6.05E-09,  avg # of iterations =  2.5

     total cpu time spent up to now is       15.2 secs

     total energy              =    -278.33529847 Ry
     estimated scf accuracy    <       0.00000013 Ry

     iteration #  7     ecut=    20.00 Ry     beta= 0.70
     Davidson diagonalization with overlap
     ethr =  3.93E-10,  avg # of iterations =  2.5

     total cpu time spent up to now is       17.4 secs

     total energy              =    -278.33529850 Ry
     estimated scf accuracy    <       0.00000004 Ry

     iteration #  8     ecut=    20.00 Ry     beta= 0.70
     Davidson diagonalization with overlap
     ethr =  1.31E-10,  avg # of iterations =  2.0

     total cpu time spent up to now is       19.5 secs

     End of self-consistent calculation

          k = 0.0000 0.0000 0.0000 (  1371 PWs)   bands (ev):

   -50.9710 -50.9509 -22.3969 -22.3473 -22.3472 -22.3182 -22.3180 -22.2307
    -6.2299  -2.9762  -2.2582  -1.2657  -1.2657  -0.8519  -0.8519  -0.0588
     4.6989   4.8151   5.4164   6.2884

          k = 0.0000 0.0000 0.2997 (  1383 PWs)   bands (ev):

   -50.9717 -50.9584 -22.4255 -22.3622 -22.3622 -22.3093 -22.3093 -22.2840
    -5.7780  -4.4979  -1.7207  -1.7207  -0.9527  -0.2458  -0.1803  -0.1803
     4.7781   4.8751   6.4982   6.4986

          k = 0.0000 0.1667-0.0749 (  1368 PWs)   bands (ev):

   -50.9632 -50.9478 -22.3581 -22.3497 -22.3262 -22.3031 -22.3017 -22.2361
    -6.0771  -3.2808  -2.0233  -1.6680  -1.2674  -0.9465  -0.7542   0.0068
     4.8611   5.3167   5.6158   6.2976

          k = 0.0000 0.1667 0.2248 (  1375 PWs)   bands (ev):

   -50.9714 -50.9479 -22.3967 -22.3558 -22.3463 -22.3312 -22.2892 -22.2337
    -5.8559  -4.0406  -2.0878  -1.5396  -1.2452  -0.5179  -0.3898  -0.0496
     4.8327   5.2507   6.1968   6.3531

          k = 0.0000 0.1667-0.3747 (  1380 PWs)   bands (ev):

   -50.9655 -50.9581 -22.4029 -22.3590 -22.3389 -22.3256 -22.3099 -22.2627
    -5.4231  -4.7989  -2.2702  -1.6946  -0.6639  -0.3318  -0.1394  -0.1119
     4.9966   5.3139   5.9677   6.4221

          k = 0.0000 0.3333-0.1499 (  1368 PWs)   bands (ev):

   -50.9592 -50.9477 -22.3668 -22.3538 -22.3220 -22.3085 -22.2788 -22.2164
    -5.6602  -3.8335  -2.3393  -1.9219  -1.2209  -0.7310  -0.6286  -0.0419
     5.1595   5.6999   6.0218   6.4336

          k = 0.0000 0.3333-0.4496 (  1362 PWs)   bands (ev):

   -50.9544 -50.9407 -22.3981 -22.3683 -22.2840 -22.2747 -22.2462 -22.1726
    -5.0839  -4.7304  -2.9326  -1.4799  -0.7751  -0.5922  -0.2348  -0.1957
     5.1347   5.6228   6.0679   6.7709

          k = 0.0000-0.5000 0.2248 (  1372 PWs)   bands (ev):

   -50.9622 -50.9521 -22.4049 -22.3409 -22.3383 -22.2955 -22.2701 -22.2592
    -5.2968  -4.2630  -2.5642  -2.0083  -1.1665  -0.6256  -0.3709  -0.2107
     5.3912   5.8190   5.9556   5.9796

          k = 0.0000-0.5000 0.5246 (  1365 PWs)   bands (ev):

   -50.9642 -50.9380 -22.3840 -22.3615 -22.3149 -22.2752 -22.2491 -22.2181
    -5.3080  -4.1934  -2.8817  -1.5189  -1.1725  -0.7511  -0.5545  -0.1420
     5.2676   5.6840   6.0129   6.6225

          k = 0.1667 0.1667-0.1499 (  1371 PWs)   bands (ev):

   -50.9629 -50.9511 -22.3752 -22.3388 -22.3340 -22.3175 -22.2935 -22.2454
    -5.8730  -3.6411  -1.9088  -1.8468  -1.4487  -0.9143  -0.5607  -0.0192
     5.2925   5.3137   5.7975   6.4968

          k = 0.1667 0.1667-0.4496 (  1374 PWs)   bands (ev):

   -50.9569 -50.9569 -22.3664 -22.3662 -22.3298 -22.3296 -22.2607 -22.2602
    -5.0407  -5.0356  -2.2107  -2.1781  -0.4521  -0.3453  -0.2527  -0.1797
     5.2835   5.3434   6.0725   6.1342

          k = 0.1667 0.3333-0.2248 (  1363 PWs)   bands (ev):

   -50.9574 -50.9408 -22.3625 -22.3304 -22.3211 -22.2837 -22.2494 -22.2223
    -5.4259  -4.0403  -2.4987  -1.7522  -1.4708  -0.8308  -0.5412  -0.0658
     5.3387   5.5761   6.2610   6.4097

          k = 0.1667 0.3333 0.0749 (  1370 PWs)   bands (ev):

   -50.9632 -50.9478 -22.3823 -22.3495 -22.3425 -22.2983 -22.2568 -22.2503
    -5.6141  -3.6230  -2.2291  -1.8560  -1.4500  -1.1824  -0.8475  -0.0286
     5.2014   5.6304   6.0796   6.8884

          k = 0.1667 0.3333-0.5246 (  1366 PWs)   bands (ev):

   -50.9532 -50.9495 -22.3537 -22.3413 -22.3216 -22.2867 -22.2729 -22.2339
    -5.0898  -4.5338  -2.7908  -1.8731  -0.8927  -0.5926  -0.3540  -0.3179
     5.3498   5.7737   5.9417   6.4119

          k = 0.1667-0.5000 0.1499 (  1365 PWs)   bands (ev):

   -50.9624 -50.9383 -22.3927 -22.3474 -22.3030 -22.2688 -22.2628 -22.2182
    -5.1841  -4.1954  -2.6230  -1.7834  -1.4676  -0.8991  -0.4545  -0.3235
     5.3944   5.6351   6.1909   6.5195

          k = 0.1667-0.5000 0.4496 (  1365 PWs)   bands (ev):

   -50.9560 -50.9455 -22.3494 -22.3445 -22.3223 -22.2917 -22.2506 -22.2404
    -5.1976  -4.1258  -2.8265  -1.6293  -1.2820  -0.9781  -0.7747  -0.0730
     5.0543   5.6665   6.1310   6.4604

          k = 0.1667-0.1667-0.0000 (  1361 PWs)   bands (ev):

   -50.9529 -50.9449 -22.3192 -22.3136 -22.3099 -22.3055 -22.2638 -22.2493
    -5.9813  -3.1873  -2.0674  -1.5451  -1.4734  -1.3068  -0.8112  -0.0013
     5.4016   5.4551   5.5467   6.1070

          k = 0.1667-0.1667 0.2997 (  1380 PWs)   bands (ev):

   -50.9736 -50.9527 -22.3993 -22.3771 -22.3682 -22.3268 -22.2911 -22.2542
    -5.5522  -4.3720  -2.1238  -2.0827  -0.8950  -0.4702  -0.2693  -0.1105
     5.2207   5.4162   5.9096   6.3425

          k = 0.3333 0.3333-0.2997 (  1363 PWs)   bands (ev):

   -50.9574 -50.9384 -22.3797 -22.3217 -22.2993 -22.2802 -22.2541 -22.2174
    -4.9815  -4.2328  -2.5221  -2.2000  -1.3853  -0.9176  -0.6260  -0.3920
     5.4692   5.5676   5.8632   6.5740

          k = 0.3333 0.3333 0.0000 (  1368 PWs)   bands (ev):

   -50.9558 -50.9496 -22.3760 -22.3723 -22.2999 -22.2742 -22.2646 -22.2486
    -5.3041  -3.7129  -1.9832  -1.9266  -1.8659  -1.3431  -1.1492  -0.2111
     4.8178   6.2663   6.6821   7.0382

          k = 0.3333-0.5000 0.0749 (  1363 PWs)   bands (ev):

   -50.9520 -50.9424 -22.3649 -22.3361 -22.3056 -22.2589 -22.2514 -22.2268
    -4.8678  -4.1613  -2.4917  -2.0192  -1.5331  -1.2719  -0.9265  -0.3942
     4.9237   5.7410   6.4506   6.9721

          k = 0.3333-0.5000-0.2248 (  1360 PWs)   bands (ev):

   -50.9504 -50.9386 -22.3539 -22.3233 -22.2838 -22.2822 -22.2298 -22.2231
    -4.8607  -4.1791  -2.4637  -1.8858  -1.7228  -1.3190  -0.7740  -0.4702
     5.3478   5.5176   6.2462   6.8263

          k =-0.5000-0.5000 0.4496 (  1370 PWs)   bands (ev):

   -50.9528 -50.9528 -22.3761 -22.3759 -22.3039 -22.3039 -22.2414 -22.2412
    -4.4416  -4.4415  -2.0967  -2.0967  -1.8229  -1.8228  -0.6321  -0.6320
     5.0189   5.0191   7.1882   7.1884

          k =-0.5000-0.5000 0.7494 (  1362 PWs)   bands (ev):

   -50.9448 -50.9448 -22.3301 -22.3300 -22.2780 -22.2780 -22.2460 -22.2460
    -4.4390  -4.4390  -2.2468  -2.2468  -1.5546  -1.5546  -0.7731  -0.7730
     5.3431   5.3431   6.4530   6.4531

          k = 0.3333 0.1667 0.2248 (  1363 PWs)   bands (ev):

   -50.9574 -50.9407 -22.3626 -22.3307 -22.3214 -22.2835 -22.2492 -22.2223
    -5.4265  -4.0424  -2.4603  -1.8129  -1.5278  -0.7209  -0.4236  -0.2170
     5.4657   5.6229   5.9439   6.3992

          k = 0.3333 0.1667-0.0749 (  1370 PWs)   bands (ev):

   -50.9633 -50.9478 -22.3825 -22.3497 -22.3428 -22.2987 -22.2569 -22.2503
    -5.6136  -3.6308  -2.2379  -1.8198  -1.5009  -1.1448  -0.7516  -0.1698
     5.2054   5.9118   6.3342   6.6753

          k = 0.3333 0.1667 0.5246 (  1366 PWs)   bands (ev):

   -50.9532 -50.9495 -22.3539 -22.3412 -22.3218 -22.2868 -22.2727 -22.2339
    -5.0927  -4.5288  -2.7614  -1.9329  -0.9833  -0.5076  -0.4081  -0.1935
     5.3467   5.5028   5.8618   6.3233

          k =-0.5000 0.1667-0.1499 (  1365 PWs)   bands (ev):

   -50.9623 -50.9383 -22.3928 -22.3472 -22.3029 -22.2688 -22.2627 -22.2183
    -5.1859  -4.1897  -2.6048  -1.8182  -1.5001  -0.8478  -0.6196  -0.1280
     5.2201   5.6289   6.1570   6.5262

          k =-0.5000 0.1667-0.4496 (  1365 PWs)   bands (ev):

   -50.9561 -50.9455 -22.3494 -22.3448 -22.3228 -22.2919 -22.2510 -22.2407
    -5.1945  -4.1384  -2.8418  -1.5859  -1.2049  -0.8591  -0.8464  -0.2855
     5.2097   5.9133   6.2532   6.8323

          k =-0.5000 0.3333-0.0749 (  1363 PWs)   bands (ev):

   -50.9520 -50.9424 -22.3650 -22.3358 -22.3055 -22.2586 -22.2511 -22.2270
    -4.8723  -4.1491  -2.4679  -2.0566  -1.5980  -1.2415  -0.9296  -0.3256
     4.9010   5.6860   6.2862   6.8238

     the Fermi energy is     3.6723 ev

!    total energy              =    -278.33529850 Ry
     estimated scf accuracy    <          1.4E-09 Ry
     smearing contrib. (-TS)   =       0.00000000 Ry
     internal energy E=F+TS    =    -278.33529850 Ry

     The total energy is F=E-TS. E is the sum of the following terms:
     one-electron contribution =    -170.53467100 Ry
     hartree contribution      =      91.23245323 Ry
     xc contribution           =     -39.24048649 Ry
     ewald contribution        =     -90.40844892 Ry
     one-center paw contrib.   =     -69.38414532 Ry

     convergence has been achieved in   8 iterations

     Forces acting on atoms (cartesian axes, Ry/au):

     atom    1 type  1   force =     0.00000000    0.00000000    0.00000000
     atom    2 type  1   force =     0.00000000    0.00000000    0.00000000
     atom    3 type  3   force =     0.00000000    0.00000000    0.00000000
     atom    4 type  3   force =     0.00000000    0.00000000    0.00000000
     atom    5 type  2   force =    -0.00292670   -0.00496848   -0.00370859
     atom    6 type  2   force =    -0.00496848    0.00292670   -0.00370859
     atom    7 type  2   force =    -0.00496848    0.00292670    0.00370859
     atom    8 type  2   force =    -0.00292670   -0.00496848    0.00370859
     atom    9 type  2   force =     0.00292670    0.00496848   -0.00370859
     atom   10 type  2   force =     0.00292670    0.00496848    0.00370859
     atom   11 type  2   force =     0.00496848   -0.00292670    0.00370859
     atom   12 type  2   force =     0.00496848   -0.00292670   -0.00370859

     Total force =     0.019392     Total SCF correction =     0.000002


     Computing stress (Cartesian axis) and pressure

          total   stress  (Ry/bohr**3)                   (kbar)     P=     -551.59
  -0.00374668   0.00000000   0.00000000         -551.16        0.00        0.00
   0.00000000  -0.00374668   0.00000000            0.00     -551.16        0.00
   0.00000000   0.00000000  -0.00375543            0.00        0.00     -552.44


     Writing output data file ./ecutwfc/NaAlH4_663_20_100.save/

     init_run     :      4.13s CPU      1.43s WALL (       1 calls)
     electrons    :     70.56s CPU     17.97s WALL (       1 calls)
     forces       :      1.12s CPU      0.30s WALL (       1 calls)
     stress       :      5.41s CPU      1.38s WALL (       1 calls)

     Called by init_run:
     wfcinit      :      3.22s CPU      0.88s WALL (       1 calls)
     potinit      :      0.21s CPU      0.22s WALL (       1 calls)
     hinit0       :      0.46s CPU      0.26s WALL (       1 calls)

     Called by electrons:
     c_bands      :     53.96s CPU     12.78s WALL (       8 calls)
     sum_band     :     12.15s CPU      3.07s WALL (       8 calls)
     v_of_rho     :      0.48s CPU      0.14s WALL (       9 calls)
     newd         :      1.13s CPU      0.40s WALL (       9 calls)
     PAW_pot      :      3.05s CPU      1.79s WALL (       9 calls)
     mix_rho      :      0.11s CPU      0.02s WALL (       8 calls)

     Called by c_bands:
     init_us_2    :      1.74s CPU      0.39s WALL (     570 calls)
     cegterg      :     48.74s CPU     11.58s WALL (     240 calls)

     Called by *egterg:
     cdiaghg      :      2.30s CPU      0.45s WALL (    1122 calls)
     h_psi        :     45.26s CPU     11.13s WALL (    1152 calls)
     s_psi        :      0.78s CPU      0.17s WALL (    1152 calls)
     g_psi        :      0.45s CPU      0.08s WALL (     882 calls)

     Called by h_psi:
     h_psi:calbec :      1.77s CPU      0.57s WALL (    1152 calls)
     vloc_psi     :     42.50s CPU     10.35s WALL (    1152 calls)
     add_vuspsi   :      0.77s CPU      0.16s WALL (    1152 calls)

     General routines
     calbec       :      3.27s CPU      1.05s WALL (    1542 calls)
     fft          :      0.32s CPU      0.10s WALL (     140 calls)
     ffts         :      0.03s CPU      0.01s WALL (      17 calls)
     fftw         :     43.32s CPU     10.63s WALL (   32068 calls)
     interpolate  :      0.00s CPU      0.01s WALL (       9 calls)

     Parallel routines

     PWSCF        :   1m21.57s CPU     21.26s WALL


   This run was terminated on:  21:39:26  17Oct2023            

=------------------------------------------------------------------------------=
   JOB DONE.
=------------------------------------------------------------------------------=
