
     Program PWSCF v.6.7MaX starts on 17Oct2023 at 21:48:58 

     This program is part of the open-source Quantum ESPRESSO suite
     for quantum simulation of materials; please cite
         "P. Giannozzi et al., J. Phys.:Condens. Matter 21 395502 (2009);
         "P. Giannozzi et al., J. Phys.:Condens. Matter 29 465901 (2017);
          URL http://www.quantum-espresso.org", 
     in publications or presentations arising from this work. More details at
     http://www.quantum-espresso.org/quote

     Parallel version (MPI), running on     1 processors

     MPI processes distributed on     1 nodes
     Reading input from NaAlH4.in

     Current dimensions of program PWSCF are:
     Max number of different atomic species (ntypx) = 10
     Max number of k-points (npk) =  40000
     Max angular momentum in pseudopotentials (lmaxx) =  3
     file Al.pbe-n-kjpaw_psl.1.0.0.UPF: wavefunction(s)  3S 3P renormalized

     IMPORTANT: XC functional enforced from input :
     Exchange-correlation= PBE
                           (   1   4   3   4   0   0   0)
     Any further DFT definition will be discarded
     Please, verify this is what you really want


     Subspace diagonalization in iterative solution of the eigenvalue problem:
     a serial algorithm will be used

     Message from routine setup:
     using ibrav=0 with symmetry is DISCOURAGED, use correct ibrav instead

     G-vector sticks info
     --------------------
     sticks:   dense  smooth     PW     G-vecs:    dense   smooth      PW
     Sum        4165    3457    973               224645   170853   25567



     bravais-lattice index     =            0
     lattice parameter (alat)  =       9.3373  a.u.
     unit-cell volume          =     905.3038 (a.u.)^3
     number of atoms/cell      =           12
     number of atomic types    =            3
     number of electrons       =        32.00
     number of Kohn-Sham states=           20
     kinetic-energy cutoff     =     125.0000  Ry
     charge density cutoff     =     600.0000  Ry
     scf convergence threshold =      1.0E-08
     mixing beta               =       0.7000
     number of iterations used =            8  plain     mixing
     Exchange-correlation= PBE
                           (   1   4   3   4   0   0   0)

     celldm(1)=   9.337326  celldm(2)=   0.000000  celldm(3)=   0.000000
     celldm(4)=   0.000000  celldm(5)=   0.000000  celldm(6)=   0.000000

     crystal axes: (cart. coord. in units of alat)
               a(1) = (   1.000000   0.000000   0.000000 )  
               a(2) = (   0.000000   1.000000   0.000000 )  
               a(3) = (   0.500000   0.500000   1.112056 )  

     reciprocal axes: (cart. coord. in units 2 pi/alat)
               b(1) = (  1.000000  0.000000 -0.449617 )  
               b(2) = (  0.000000  1.000000 -0.449617 )  
               b(3) = (  0.000000  0.000000  0.899235 )  


     PseudoPot. # 1 for Al read from file:
     /home/vojta/Dokumenty/UA_CompPhys/pseudopotentials/Al.pbe-n-kjpaw_psl.1.0.0.UPF
     MD5 check sum: cfc449ca30b5f3223ec38ddd88ac046d
     Pseudo is Projector augmented-wave + core cor, Zval =  3.0
     Generated using "atomic" code by A. Dal Corso  v.5.1
     Shape of augmentation charge: PSQ
     Using radial grid of 1135 points,  6 beta functions with: 
                l(1) =   0
                l(2) =   0
                l(3) =   1
                l(4) =   1
                l(5) =   2
                l(6) =   2
     Q(r) pseudized with 0 coefficients 


     PseudoPot. # 2 for H  read from file:
     /home/vojta/Dokumenty/UA_CompPhys/pseudopotentials/H.pbe-rrkjus_psl.1.0.0.UPF
     MD5 check sum: f52b6d4d1c606e5624b1dc7b2218f220
     Pseudo is Ultrasoft, Zval =  1.0
     Generated using "atomic" code by A. Dal Corso  v.5.1
     Using radial grid of  929 points,  2 beta functions with: 
                l(1) =   0
                l(2) =   0
     Q(r) pseudized with 0 coefficients 


     PseudoPot. # 3 for Na read from file:
     /home/vojta/Dokumenty/UA_CompPhys/pseudopotentials/na_pbe_v1.5.uspp.F.UPF
     MD5 check sum: 44600605ef58000f06b90626533354dc
     Pseudo is Ultrasoft, Zval =  9.0
     Generated by new atomic code, or converted to UPF format
     Using radial grid of  819 points,  5 beta functions with: 
                l(1) =   0
                l(2) =   0
                l(3) =   1
                l(4) =   1
                l(5) =   2
     Q(r) pseudized with  8 coefficients,  rinner =    1.250   1.250   1.250
                                                       1.250   1.250

     atomic species   valence    mass     pseudopotential
        Al             3.00    26.98100     Al( 1.00)
        H              1.00     1.00750     H ( 1.00)
        Na             9.00    22.98900     Na( 1.00)

      8 Sym. Ops., with inversion, found ( 6 have fractional translation)



   Cartesian axes

     site n.     atom                  positions (alat units)
         1           Al  tau(   1) = (   1.0000000   0.2500000   0.2780141  )
         2           Al  tau(   2) = (   0.5000000   1.2500000   0.8340423  )
         3           Na  tau(   3) = (   0.5000000   0.7500000   0.2780141  )
         4           Na  tau(   4) = (   1.0000000   0.7500000   0.8340423  )
         5           H   tau(   5) = (   0.3578100   1.0135100   0.6538447  )
         6           H   tau(   6) = (   0.7635100   0.3921900   0.0978165  )
         7           H   tau(   7) = (   1.2635100   1.3921900   1.0142399  )
         8           H   tau(   8) = (   0.8578100   1.0135100   0.4582117  )
         9           H   tau(   9) = (   0.6421900   0.4864900   0.6538447  )
        10           H   tau(  10) = (   1.1421900   0.4864900   0.4582117  )
        11           H   tau(  11) = (   0.7364900   1.1078100   1.0142399  )
        12           H   tau(  12) = (   0.2364900   0.1078100   0.0978165  )

     number of k points=    30  Marzari-Vanderbilt smearing, width (Ry)=  0.0050
                       cart. coord. in units 2pi/alat
        k(    1) = (   0.0000000   0.0000000   0.0000000), wk =   0.0185185
        k(    2) = (   0.0000000   0.0000000   0.2997450), wk =   0.0370370
        k(    3) = (   0.0000000   0.1666667  -0.0749362), wk =   0.0740741
        k(    4) = (   0.0000000   0.1666667   0.2248087), wk =   0.0740741
        k(    5) = (   0.0000000   0.1666667  -0.3746812), wk =   0.0740741
        k(    6) = (   0.0000000   0.3333333  -0.1498725), wk =   0.1481481
        k(    7) = (   0.0000000   0.3333333  -0.4496175), wk =   0.0740741
        k(    8) = (   0.0000000  -0.5000000   0.2248087), wk =   0.0370370
        k(    9) = (   0.0000000  -0.5000000   0.5245537), wk =   0.0740741
        k(   10) = (   0.1666667   0.1666667  -0.1498725), wk =   0.0740741
        k(   11) = (   0.1666667   0.1666667  -0.4496175), wk =   0.0370370
        k(   12) = (   0.1666667   0.3333333  -0.2248087), wk =   0.0740741
        k(   13) = (   0.1666667   0.3333333   0.0749362), wk =   0.0740741
        k(   14) = (   0.1666667   0.3333333  -0.5245537), wk =   0.0740741
        k(   15) = (   0.1666667  -0.5000000   0.1498725), wk =   0.0740741
        k(   16) = (   0.1666667  -0.5000000   0.4496175), wk =   0.0370370
        k(   17) = (   0.1666667  -0.1666667  -0.0000000), wk =   0.0370370
        k(   18) = (   0.1666667  -0.1666667   0.2997450), wk =   0.0740741
        k(   19) = (   0.3333333   0.3333333  -0.2997450), wk =   0.1481481
        k(   20) = (   0.3333333   0.3333333   0.0000000), wk =   0.0740741
        k(   21) = (   0.3333333  -0.5000000   0.0749362), wk =   0.0740741
        k(   22) = (   0.3333333  -0.5000000  -0.2248087), wk =   0.0740741
        k(   23) = (  -0.5000000  -0.5000000   0.4496175), wk =   0.0185185
        k(   24) = (  -0.5000000  -0.5000000   0.7493625), wk =   0.0370370
        k(   25) = (   0.3333333   0.1666667   0.2248087), wk =   0.0740741
        k(   26) = (   0.3333333   0.1666667  -0.0749362), wk =   0.0740741
        k(   27) = (   0.3333333   0.1666667   0.5245537), wk =   0.0740741
        k(   28) = (  -0.5000000   0.1666667  -0.1498725), wk =   0.0740741
        k(   29) = (  -0.5000000   0.1666667  -0.4496175), wk =   0.0370370
        k(   30) = (  -0.5000000   0.3333333  -0.0749362), wk =   0.0740741

     Dense  grid:   224645 G-vectors     FFT dimensions: (  80,  80,  96)

     Smooth grid:   170853 G-vectors     FFT dimensions: (  72,  72,  90)

     Estimated max dynamical RAM per process >       1.07 GB

     Initial potential from superposition of free atoms

     starting charge   31.98276, renormalised to   32.00000
     Starting wfcs are   26 randomized atomic wfcs
     Checking if some PAW data can be deallocated... 

     total cpu time spent up to now is        9.3 secs

     Self-consistent Calculation

     iteration #  1     ecut=   125.00 Ry     beta= 0.70
     Davidson diagonalization with overlap
     ethr =  1.00E-02,  avg # of iterations =  4.0

     total cpu time spent up to now is       29.8 secs

     total energy              =    -279.10835426 Ry
     estimated scf accuracy    <       0.55391313 Ry

     iteration #  2     ecut=   125.00 Ry     beta= 0.70
     Davidson diagonalization with overlap
     ethr =  1.73E-03,  avg # of iterations =  2.0

     total cpu time spent up to now is       46.9 secs

     total energy              =    -279.14602189 Ry
     estimated scf accuracy    <       0.00981507 Ry

     iteration #  3     ecut=   125.00 Ry     beta= 0.70
     Davidson diagonalization with overlap
     ethr =  3.07E-05,  avg # of iterations =  8.7

     total cpu time spent up to now is       73.6 secs

     total energy              =    -279.14859362 Ry
     estimated scf accuracy    <       0.00034936 Ry

     iteration #  4     ecut=   125.00 Ry     beta= 0.70
     Davidson diagonalization with overlap
     ethr =  1.09E-06,  avg # of iterations =  5.5

     total cpu time spent up to now is       96.7 secs

     total energy              =    -279.14870335 Ry
     estimated scf accuracy    <       0.00004314 Ry

     iteration #  5     ecut=   125.00 Ry     beta= 0.70
     Davidson diagonalization with overlap
     ethr =  1.35E-07,  avg # of iterations =  2.2

     total cpu time spent up to now is      115.3 secs

     total energy              =    -279.14871092 Ry
     estimated scf accuracy    <       0.00000467 Ry

     iteration #  6     ecut=   125.00 Ry     beta= 0.70
     Davidson diagonalization with overlap
     ethr =  1.46E-08,  avg # of iterations =  2.1

     total cpu time spent up to now is      133.6 secs

     total energy              =    -279.14871150 Ry
     estimated scf accuracy    <       0.00000006 Ry

     iteration #  7     ecut=   125.00 Ry     beta= 0.70
     Davidson diagonalization with overlap
     ethr =  2.03E-10,  avg # of iterations =  4.3

     total cpu time spent up to now is      156.8 secs

     total energy              =    -279.14871154 Ry
     estimated scf accuracy    <       0.00000002 Ry

     iteration #  8     ecut=   125.00 Ry     beta= 0.70
     Davidson diagonalization with overlap
     ethr =  7.28E-11,  avg # of iterations =  2.0

     total cpu time spent up to now is      175.7 secs

     End of self-consistent calculation

          k = 0.0000 0.0000 0.0000 ( 21385 PWs)   bands (ev):

   -49.8258 -49.8243 -21.7591 -21.7513 -21.7513 -21.7454 -21.7454 -21.7351
    -6.2372  -2.9953  -2.2682  -1.2826  -1.2826  -0.8763  -0.8763  -0.1025
     4.7471   4.8205   5.4554   6.2871

          k = 0.0000 0.0000 0.2997 ( 21441 PWs)   bands (ev):

   -49.8254 -49.8247 -21.7539 -21.7539 -21.7532 -21.7428 -21.7428 -21.7412
    -5.7836  -4.5051  -1.7340  -1.7340  -0.9765  -0.2802  -0.2151  -0.2151
     4.7961   4.9045   6.5016   6.5016

          k = 0.0000 0.1667-0.0749 ( 21373 PWs)   bands (ev):

   -49.8257 -49.8243 -21.7587 -21.7519 -21.7517 -21.7451 -21.7449 -21.7356
    -6.0840  -3.2973  -2.0374  -1.6829  -1.2851  -0.9711  -0.7838  -0.0324
     4.8887   5.3415   5.6379   6.3119

          k = 0.0000 0.1667 0.2248 ( 21382 PWs)   bands (ev):

   -49.8255 -49.8245 -21.7561 -21.7534 -21.7531 -21.7435 -21.7435 -21.7384
    -5.8618  -4.0508  -2.0979  -1.5560  -1.2674  -0.5477  -0.4225  -0.0862
     4.8588   5.2721   6.2041   6.3657

          k = 0.0000 0.1667-0.3747 ( 21405 PWs)   bands (ev):

   -49.8252 -49.8248 -21.7555 -21.7542 -21.7504 -21.7447 -21.7425 -21.7409
    -5.4291  -4.8060  -2.2780  -1.7108  -0.6919  -0.3637  -0.1753  -0.1470
     5.0203   5.3351   5.9724   6.4272

          k = 0.0000 0.3333-0.1499 ( 21371 PWs)   bands (ev):

   -49.8255 -49.8245 -21.7579 -21.7534 -21.7525 -21.7441 -21.7440 -21.7369
    -5.6667  -3.8462  -2.3471  -1.9386  -1.2445  -0.7578  -0.6617  -0.0759
     5.1865   5.7146   6.0290   6.4408

          k = 0.0000 0.3333-0.4496 ( 21358 PWs)   bands (ev):

   -49.8252 -49.8248 -21.7575 -21.7537 -21.7503 -21.7457 -21.7429 -21.7389
    -5.0931  -4.7381  -2.9386  -1.4999  -0.8050  -0.6199  -0.2733  -0.2313
     5.1587   5.6225   6.0817   6.7911

          k = 0.0000-0.5000 0.2248 ( 21332 PWs)   bands (ev):

   -49.8254 -49.8246 -21.7574 -21.7543 -21.7528 -21.7437 -21.7433 -21.7378
    -5.3030  -4.2732  -2.5706  -2.0222  -1.1956  -0.6567  -0.3963  -0.2461
     5.4137   5.8206   5.9885   5.9896

          k = 0.0000-0.5000 0.5246 ( 21343 PWs)   bands (ev):

   -49.8254 -49.8246 -21.7584 -21.7529 -21.7522 -21.7449 -21.7436 -21.7372
    -5.3149  -4.2041  -2.8879  -1.5386  -1.2022  -0.7781  -0.5852  -0.1729
     5.2900   5.6897   6.0270   6.6348

          k = 0.1667 0.1667-0.1499 ( 21364 PWs)   bands (ev):

   -49.8256 -49.8245 -21.7577 -21.7534 -21.7520 -21.7451 -21.7434 -21.7367
    -5.8792  -3.6545  -1.9232  -1.8587  -1.4687  -0.9403  -0.5925  -0.0549
     5.3171   5.3372   5.8072   6.5163

          k = 0.1667 0.1667-0.4496 ( 21398 PWs)   bands (ev):

   -49.8250 -49.8250 -21.7555 -21.7553 -21.7480 -21.7475 -21.7412 -21.7410
    -5.0473  -5.0425  -2.2214  -2.1859  -0.4845  -0.3769  -0.2876  -0.2189
     5.3012   5.3705   6.0862   6.1368

          k = 0.1667 0.3333-0.2248 ( 21373 PWs)   bands (ev):

   -49.8254 -49.8246 -21.7571 -21.7549 -21.7521 -21.7452 -21.7419 -21.7379
    -5.4337  -4.0532  -2.5077  -1.7688  -1.4907  -0.8586  -0.5737  -0.1012
     5.3640   5.5986   6.2604   6.4090

          k = 0.1667 0.3333 0.0749 ( 21347 PWs)   bands (ev):

   -49.8255 -49.8245 -21.7586 -21.7538 -21.7511 -21.7463 -21.7430 -21.7362
    -5.6208  -3.6379  -2.2406  -1.8722  -1.4663  -1.2051  -0.8764  -0.0625
     5.2275   5.6503   6.0876   6.8892

          k = 0.1667 0.3333-0.5246 ( 21363 PWs)   bands (ev):

   -49.8252 -49.8248 -21.7572 -21.7547 -21.7507 -21.7460 -21.7417 -21.7389
    -5.0978  -4.5426  -2.7975  -1.8864  -0.9191  -0.6244  -0.3895  -0.3508
     5.3717   5.7862   5.9484   6.4237

          k = 0.1667-0.5000 0.1499 ( 21360 PWs)   bands (ev):

   -49.8254 -49.8247 -21.7578 -21.7548 -21.7518 -21.7456 -21.7419 -21.7376
    -5.1921  -4.2062  -2.6308  -1.8010  -1.4884  -0.9251  -0.4864  -0.3536
     5.4114   5.6551   6.1978   6.5410

          k = 0.1667-0.5000 0.4496 ( 21362 PWs)   bands (ev):

   -49.8254 -49.8247 -21.7584 -21.7544 -21.7504 -21.7470 -21.7421 -21.7372
    -5.2055  -4.1386  -2.8334  -1.6474  -1.3044  -1.0029  -0.8049  -0.1068
     5.0851   5.6686   6.1507   6.4793

          k = 0.1667-0.1667-0.0000 ( 21357 PWs)   bands (ev):

   -49.8257 -49.8244 -21.7590 -21.7524 -21.7511 -21.7461 -21.7444 -21.7353
    -5.9883  -3.2068  -2.0798  -1.5612  -1.4887  -1.3317  -0.8423  -0.0399
     5.4255   5.4794   5.5610   6.1229

          k = 0.1667-0.1667 0.2997 ( 21381 PWs)   bands (ev):

   -49.8254 -49.8247 -21.7555 -21.7548 -21.7520 -21.7445 -21.7419 -21.7397
    -5.5581  -4.3804  -2.1358  -2.0907  -0.9204  -0.5019  -0.3045  -0.1438
     5.2508   5.4306   5.9223   6.3461

          k = 0.3333 0.3333-0.2997 ( 21371 PWs)   bands (ev):

   -49.8252 -49.8248 -21.7569 -21.7565 -21.7509 -21.7469 -21.7402 -21.7386
    -4.9904  -4.2454  -2.5313  -2.2112  -1.4057  -0.9444  -0.6548  -0.4237
     5.4894   5.5913   5.8790   6.5793

          k = 0.3333 0.3333 0.0000 ( 21354 PWs)   bands (ev):

   -49.8254 -49.8246 -21.7586 -21.7550 -21.7504 -21.7476 -21.7418 -21.7364
    -5.3124  -3.7277  -1.9988  -1.9400  -1.8812  -1.3587  -1.1725  -0.2446
     4.8425   6.2827   6.6866   7.0534

          k = 0.3333-0.5000 0.0749 ( 21361 PWs)   bands (ev):

   -49.8252 -49.8248 -21.7580 -21.7560 -21.7502 -21.7479 -21.7404 -21.7377
    -4.8780  -4.1736  -2.5009  -2.0326  -1.5503  -1.2933  -0.9526  -0.4272
     4.9494   5.7627   6.4594   6.9726

          k = 0.3333-0.5000-0.2248 ( 21368 PWs)   bands (ev):

   -49.8252 -49.8248 -21.7575 -21.7565 -21.7507 -21.7474 -21.7400 -21.7380
    -4.8708  -4.1927  -2.4729  -1.9031  -1.7388  -1.3390  -0.8017  -0.5013
     5.3711   5.5367   6.2606   6.8269

          k =-0.5000-0.5000 0.4496 ( 21372 PWs)   bands (ev):

   -49.8250 -49.8250 -21.7573 -21.7573 -21.7492 -21.7492 -21.7388 -21.7388
    -4.4537  -4.4537  -2.1093  -2.1093  -1.8365  -1.8365  -0.6590  -0.6590
     5.0466   5.0466   7.1977   7.1977

          k =-0.5000-0.5000 0.7494 ( 21372 PWs)   bands (ev):

   -49.8250 -49.8250 -21.7573 -21.7573 -21.7492 -21.7492 -21.7388 -21.7388
    -4.4516  -4.4516  -2.2578  -2.2578  -1.5730  -1.5730  -0.7995  -0.7995
     5.3670   5.3670   6.4589   6.4589

          k = 0.3333 0.1667 0.2248 ( 21373 PWs)   bands (ev):

   -49.8254 -49.8246 -21.7570 -21.7550 -21.7521 -21.7453 -21.7419 -21.7379
    -5.4338  -4.0545  -2.4684  -1.8304  -1.5489  -0.7526  -0.4568  -0.2474
     5.4928   5.6360   5.9505   6.4095

          k = 0.3333 0.1667-0.0749 ( 21347 PWs)   bands (ev):

   -49.8255 -49.8245 -21.7587 -21.7536 -21.7513 -21.7461 -21.7432 -21.7361
    -5.6204  -3.6441  -2.2484  -1.8338  -1.5207  -1.1676  -0.7824  -0.1991
     5.2273   5.9231   6.3409   6.6829

          k = 0.3333 0.1667 0.5246 ( 21363 PWs)   bands (ev):

   -49.8252 -49.8248 -21.7570 -21.7551 -21.7504 -21.7463 -21.7413 -21.7391
    -5.1006  -4.5383  -2.7677  -1.9477  -1.0090  -0.5386  -0.4423  -0.2294
     5.3721   5.5135   5.8822   6.3412

          k =-0.5000 0.1667-0.1499 ( 21360 PWs)   bands (ev):

   -49.8254 -49.8247 -21.7577 -21.7550 -21.7516 -21.7458 -21.7417 -21.7376
    -5.1937  -4.2012  -2.6137  -1.8366  -1.5212  -0.8750  -0.6468  -0.1621
     5.2481   5.6401   6.1753   6.5270

          k =-0.5000 0.1667-0.4496 ( 21362 PWs)   bands (ev):

   -49.8254 -49.8247 -21.7585 -21.7541 -21.7509 -21.7465 -21.7425 -21.7371
    -5.2026  -4.1493  -2.8487  -1.6057  -1.2274  -0.8846  -0.8736  -0.3177
     5.2269   5.9270   6.2489   6.8604

          k =-0.5000 0.3333-0.0749 ( 21361 PWs)   bands (ev):

   -49.8252 -49.8248 -21.7579 -21.7562 -21.7500 -21.7481 -21.7402 -21.7378
    -4.8820  -4.1634  -2.4770  -2.0706  -1.6169  -1.2636  -0.9530  -0.3573
     4.9286   5.7097   6.2914   6.8340

     the Fermi energy is    -0.0013 ev

!    total energy              =    -279.14871154 Ry
     estimated scf accuracy    <          2.8E-10 Ry
     smearing contrib. (-TS)   =       0.00035860 Ry
     internal energy E=F+TS    =    -279.14907014 Ry

     The total energy is F=E-TS. E is the sum of the following terms:
     one-electron contribution =    -172.69256283 Ry
     hartree contribution      =      92.93392569 Ry
     xc contribution           =     -39.59938685 Ry
     ewald contribution        =     -90.40844891 Ry
     one-center paw contrib.   =     -69.38259724 Ry

     convergence has been achieved in   8 iterations

     Forces acting on atoms (cartesian axes, Ry/au):

     atom    1 type  1   force =     0.00000000    0.00000000    0.00000000
     atom    2 type  1   force =     0.00000000    0.00000000   -0.00000000
     atom    3 type  3   force =     0.00000000    0.00000000   -0.00000000
     atom    4 type  3   force =     0.00000000    0.00000000    0.00000000
     atom    5 type  2   force =    -0.00210027   -0.00292649   -0.00268102
     atom    6 type  2   force =    -0.00292649    0.00210027   -0.00268102
     atom    7 type  2   force =    -0.00292649    0.00210027    0.00268102
     atom    8 type  2   force =    -0.00210027   -0.00292649    0.00268102
     atom    9 type  2   force =     0.00210027    0.00292649   -0.00268102
     atom   10 type  2   force =     0.00210027    0.00292649    0.00268102
     atom   11 type  2   force =     0.00292649   -0.00210027    0.00268102
     atom   12 type  2   force =     0.00292649   -0.00210027   -0.00268102

     Total force =     0.012701     Total SCF correction =     0.000004


     Computing stress (Cartesian axis) and pressure

          total   stress  (Ry/bohr**3)                   (kbar)     P=       13.86
   0.00009607  -0.00000000   0.00000000           14.13       -0.00        0.00
   0.00000000   0.00009607   0.00000000            0.00       14.13        0.00
   0.00000000   0.00000000   0.00009053            0.00        0.00       13.32


     Writing output data file ./ecutwfc/NaAlH4_663_125_600.save/

     init_run     :     22.52s CPU      9.17s WALL (       1 calls)
     electrons    :    640.42s CPU    166.47s WALL (       1 calls)
     forces       :     11.57s CPU      3.18s WALL (       1 calls)
     stress       :     58.90s CPU     18.07s WALL (       1 calls)

     Called by init_run:
     wfcinit      :     19.19s CPU      6.51s WALL (       1 calls)
     potinit      :      0.77s CPU      0.83s WALL (       1 calls)
     hinit0       :      1.00s CPU      0.95s WALL (       1 calls)

     Called by electrons:
     c_bands      :    507.10s CPU    126.31s WALL (       8 calls)
     sum_band     :    119.70s CPU     30.57s WALL (       8 calls)
     v_of_rho     :      2.25s CPU      2.32s WALL (       9 calls)
     newd         :     10.72s CPU      6.35s WALL (       9 calls)
     PAW_pot      :      1.58s CPU      1.58s WALL (       9 calls)
     mix_rho      :      0.36s CPU      0.35s WALL (       8 calls)

     Called by c_bands:
     init_us_2    :     25.74s CPU      6.47s WALL (     570 calls)
     cegterg      :    429.55s CPU    106.68s WALL (     240 calls)

     Called by *egterg:
     cdiaghg      :      4.64s CPU      0.46s WALL (    1164 calls)
     h_psi        :    311.80s CPU     99.85s WALL (    1194 calls)
     s_psi        :     33.74s CPU      2.69s WALL (    1194 calls)
     g_psi        :      8.16s CPU      1.22s WALL (     924 calls)

     Called by h_psi:
     h_psi:calbec :     33.76s CPU      3.27s WALL (    1194 calls)
     vloc_psi     :    232.27s CPU     92.80s WALL (    1194 calls)
     add_vuspsi   :     43.00s CPU      3.15s WALL (    1194 calls)

     General routines
     calbec       :     47.69s CPU      4.55s WALL (    1584 calls)
     fft          :      2.32s CPU      2.15s WALL (     140 calls)
     ffts         :      0.17s CPU      0.09s WALL (      17 calls)
     fftw         :    229.14s CPU     92.82s WALL (   33394 calls)
     interpolate  :      0.19s CPU      0.19s WALL (       9 calls)

     Parallel routines

     PWSCF        :  12m13.67s CPU   3m17.31s WALL


   This run was terminated on:  21:52:15  17Oct2023            

=------------------------------------------------------------------------------=
   JOB DONE.
=------------------------------------------------------------------------------=
