
     Program PWSCF v.6.7MaX starts on 17Oct2023 at 21:19:59 

     This program is part of the open-source Quantum ESPRESSO suite
     for quantum simulation of materials; please cite
         "P. Giannozzi et al., J. Phys.:Condens. Matter 21 395502 (2009);
         "P. Giannozzi et al., J. Phys.:Condens. Matter 29 465901 (2017);
          URL http://www.quantum-espresso.org", 
     in publications or presentations arising from this work. More details at
     http://www.quantum-espresso.org/quote

     Parallel version (MPI), running on     1 processors

     MPI processes distributed on     1 nodes
     Reading input from NaAlH4.in

     Current dimensions of program PWSCF are:
     Max number of different atomic species (ntypx) = 10
     Max number of k-points (npk) =  40000
     Max angular momentum in pseudopotentials (lmaxx) =  3
     file Al.pbe-n-kjpaw_psl.1.0.0.UPF: wavefunction(s)  3S 3P renormalized

     IMPORTANT: XC functional enforced from input :
     Exchange-correlation= PBE
                           (   1   4   3   4   0   0   0)
     Any further DFT definition will be discarded
     Please, verify this is what you really want


     Subspace diagonalization in iterative solution of the eigenvalue problem:
     a serial algorithm will be used

     Message from routine setup:
     using ibrav=0 with symmetry is DISCOURAGED, use correct ibrav instead

     G-vector sticks info
     --------------------
     sticks:   dense  smooth     PW     G-vecs:    dense   smooth      PW
     Sum        1741    1373    421                60553    43255    7085



     bravais-lattice index     =            0
     lattice parameter (alat)  =       9.3373  a.u.
     unit-cell volume          =     905.3038 (a.u.)^3
     number of atoms/cell      =           12
     number of atomic types    =            3
     number of electrons       =        32.00
     number of Kohn-Sham states=           20
     kinetic-energy cutoff     =      50.0000  Ry
     charge density cutoff     =     250.0000  Ry
     scf convergence threshold =      1.0E-08
     mixing beta               =       0.7000
     number of iterations used =            8  plain     mixing
     Exchange-correlation= PBE
                           (   1   4   3   4   0   0   0)

     celldm(1)=   9.337326  celldm(2)=   0.000000  celldm(3)=   0.000000
     celldm(4)=   0.000000  celldm(5)=   0.000000  celldm(6)=   0.000000

     crystal axes: (cart. coord. in units of alat)
               a(1) = (   1.000000   0.000000   0.000000 )  
               a(2) = (   0.000000   1.000000   0.000000 )  
               a(3) = (   0.500000   0.500000   1.112056 )  

     reciprocal axes: (cart. coord. in units 2 pi/alat)
               b(1) = (  1.000000  0.000000 -0.449617 )  
               b(2) = (  0.000000  1.000000 -0.449617 )  
               b(3) = (  0.000000  0.000000  0.899235 )  


     PseudoPot. # 1 for Al read from file:
     /home/vojta/Dokumenty/UA_CompPhys/pseudopotentials/Al.pbe-n-kjpaw_psl.1.0.0.UPF
     MD5 check sum: cfc449ca30b5f3223ec38ddd88ac046d
     Pseudo is Projector augmented-wave + core cor, Zval =  3.0
     Generated using "atomic" code by A. Dal Corso  v.5.1
     Shape of augmentation charge: PSQ
     Using radial grid of 1135 points,  6 beta functions with: 
                l(1) =   0
                l(2) =   0
                l(3) =   1
                l(4) =   1
                l(5) =   2
                l(6) =   2
     Q(r) pseudized with 0 coefficients 


     PseudoPot. # 2 for H  read from file:
     /home/vojta/Dokumenty/UA_CompPhys/pseudopotentials/H.pbe-rrkjus_psl.1.0.0.UPF
     MD5 check sum: f52b6d4d1c606e5624b1dc7b2218f220
     Pseudo is Ultrasoft, Zval =  1.0
     Generated using "atomic" code by A. Dal Corso  v.5.1
     Using radial grid of  929 points,  2 beta functions with: 
                l(1) =   0
                l(2) =   0
     Q(r) pseudized with 0 coefficients 


     PseudoPot. # 3 for Na read from file:
     /home/vojta/Dokumenty/UA_CompPhys/pseudopotentials/na_pbe_v1.5.uspp.F.UPF
     MD5 check sum: 44600605ef58000f06b90626533354dc
     Pseudo is Ultrasoft, Zval =  9.0
     Generated by new atomic code, or converted to UPF format
     Using radial grid of  819 points,  5 beta functions with: 
                l(1) =   0
                l(2) =   0
                l(3) =   1
                l(4) =   1
                l(5) =   2
     Q(r) pseudized with  8 coefficients,  rinner =    1.250   1.250   1.250
                                                       1.250   1.250

     atomic species   valence    mass     pseudopotential
        Al             3.00    26.98100     Al( 1.00)
        H              1.00     1.00750     H ( 1.00)
        Na             9.00    22.98900     Na( 1.00)

      8 Sym. Ops., with inversion, found ( 6 have fractional translation)



   Cartesian axes

     site n.     atom                  positions (alat units)
         1           Al  tau(   1) = (   1.0000000   0.2500000   0.2780141  )
         2           Al  tau(   2) = (   0.5000000   1.2500000   0.8340423  )
         3           Na  tau(   3) = (   0.5000000   0.7500000   0.2780141  )
         4           Na  tau(   4) = (   1.0000000   0.7500000   0.8340423  )
         5           H   tau(   5) = (   0.3578100   1.0135100   0.6538447  )
         6           H   tau(   6) = (   0.7635100   0.3921900   0.0978165  )
         7           H   tau(   7) = (   1.2635100   1.3921900   1.0142399  )
         8           H   tau(   8) = (   0.8578100   1.0135100   0.4582117  )
         9           H   tau(   9) = (   0.6421900   0.4864900   0.6538447  )
        10           H   tau(  10) = (   1.1421900   0.4864900   0.4582117  )
        11           H   tau(  11) = (   0.7364900   1.1078100   1.0142399  )
        12           H   tau(  12) = (   0.2364900   0.1078100   0.0978165  )

     number of k points=    66  Marzari-Vanderbilt smearing, width (Ry)=  0.0050
                       cart. coord. in units 2pi/alat
        k(    1) = (   0.0000000   0.0000000   0.0000000), wk =   0.0078125
        k(    2) = (   0.0000000   0.0000000   0.2248087), wk =   0.0156250
        k(    3) = (   0.0000000   0.0000000  -0.4496175), wk =   0.0078125
        k(    4) = (   0.0000000   0.1250000  -0.0562022), wk =   0.0312500
        k(    5) = (   0.0000000   0.1250000   0.1686066), wk =   0.0312500
        k(    6) = (   0.0000000   0.1250000  -0.5058197), wk =   0.0312500
        k(    7) = (   0.0000000   0.1250000  -0.2810109), wk =   0.0312500
        k(    8) = (   0.0000000   0.2500000  -0.1124044), wk =   0.0625000
        k(    9) = (   0.0000000   0.2500000  -0.5620219), wk =   0.0625000
        k(   10) = (   0.0000000   0.3750000  -0.1686066), wk =   0.0312500
        k(   11) = (   0.0000000   0.3750000   0.0562022), wk =   0.0312500
        k(   12) = (   0.0000000   0.3750000  -0.6182241), wk =   0.0312500
        k(   13) = (   0.0000000   0.3750000  -0.3934153), wk =   0.0312500
        k(   14) = (   0.0000000  -0.5000000   0.2248087), wk =   0.0312500
        k(   15) = (   0.0000000  -0.5000000   0.4496175), wk =   0.0312500
        k(   16) = (   0.1250000   0.1250000  -0.1124044), wk =   0.0312500
        k(   17) = (   0.1250000   0.1250000  -0.5620219), wk =   0.0312500
        k(   18) = (   0.1250000   0.2500000  -0.1686066), wk =   0.0312500
        k(   19) = (   0.1250000   0.2500000   0.0562022), wk =   0.0312500
        k(   20) = (   0.1250000   0.2500000  -0.6182241), wk =   0.0312500
        k(   21) = (   0.1250000   0.2500000  -0.3934153), wk =   0.0312500
        k(   22) = (   0.1250000   0.3750000  -0.2248087), wk =   0.0312500
        k(   23) = (   0.1250000   0.3750000   0.0000000), wk =   0.0156250
        k(   24) = (   0.1250000   0.3750000  -0.4496175), wk =   0.0156250
        k(   25) = (   0.1250000  -0.5000000   0.1686066), wk =   0.0312500
        k(   26) = (   0.1250000  -0.5000000   0.3934153), wk =   0.0312500
        k(   27) = (   0.1250000  -0.3750000   0.1124044), wk =   0.0312500
        k(   28) = (   0.1250000  -0.3750000   0.3372131), wk =   0.0312500
        k(   29) = (   0.1250000  -0.1250000   0.0000000), wk =   0.0156250
        k(   30) = (   0.1250000  -0.1250000   0.2248087), wk =   0.0312500
        k(   31) = (   0.1250000  -0.1250000  -0.4496175), wk =   0.0156250
        k(   32) = (   0.2500000   0.2500000  -0.2248087), wk =   0.0625000
        k(   33) = (   0.2500000   0.2500000   0.0000000), wk =   0.0312500
        k(   34) = (   0.2500000   0.2500000  -0.4496175), wk =   0.0312500
        k(   35) = (   0.2500000   0.3750000  -0.2810109), wk =   0.0312500
        k(   36) = (   0.2500000   0.3750000  -0.0562022), wk =   0.0312500
        k(   37) = (   0.2500000   0.3750000  -0.7306284), wk =   0.0312500
        k(   38) = (   0.2500000   0.3750000  -0.5058197), wk =   0.0312500
        k(   39) = (   0.2500000  -0.5000000   0.1124044), wk =   0.0625000
        k(   40) = (   0.3750000   0.3750000  -0.3372131), wk =   0.0312500
        k(   41) = (   0.3750000   0.3750000  -0.1124044), wk =   0.0312500
        k(   42) = (   0.3750000  -0.5000000   0.0562022), wk =   0.0312500
        k(   43) = (   0.3750000  -0.5000000   0.2810109), wk =   0.0312500
        k(   44) = (   0.3750000  -0.3750000   0.0000000), wk =   0.0156250
        k(   45) = (   0.3750000  -0.3750000   0.2248087), wk =   0.0312500
        k(   46) = (   0.3750000  -0.3750000  -0.4496175), wk =   0.0156250
        k(   47) = (  -0.5000000  -0.5000000   0.4496175), wk =   0.0156250
        k(   48) = (  -0.5000000  -0.5000000   0.6744262), wk =   0.0156250
        k(   49) = (   0.2500000   0.1250000   0.1686066), wk =   0.0312500
        k(   50) = (   0.2500000   0.1250000  -0.0562022), wk =   0.0312500
        k(   51) = (   0.2500000   0.1250000   0.6182241), wk =   0.0312500
        k(   52) = (   0.2500000   0.1250000   0.3934153), wk =   0.0312500
        k(   53) = (   0.3750000   0.1250000   0.2248087), wk =   0.0312500
        k(   54) = (   0.3750000   0.1250000   0.0000000), wk =   0.0156250
        k(   55) = (   0.3750000   0.1250000   0.4496175), wk =   0.0156250
        k(   56) = (  -0.5000000   0.1250000  -0.1686066), wk =   0.0312500
        k(   57) = (  -0.5000000   0.1250000  -0.3934153), wk =   0.0312500
        k(   58) = (  -0.3750000   0.1250000  -0.1124044), wk =   0.0312500
        k(   59) = (  -0.3750000   0.1250000  -0.3372131), wk =   0.0312500
        k(   60) = (   0.3750000   0.2500000   0.2810109), wk =   0.0312500
        k(   61) = (   0.3750000   0.2500000   0.0562022), wk =   0.0312500
        k(   62) = (   0.3750000   0.2500000   0.7306284), wk =   0.0312500
        k(   63) = (   0.3750000   0.2500000   0.5058197), wk =   0.0312500
        k(   64) = (  -0.5000000   0.2500000  -0.1124044), wk =   0.0625000
        k(   65) = (  -0.5000000   0.3750000  -0.0562022), wk =   0.0312500
        k(   66) = (  -0.5000000   0.3750000  -0.2810109), wk =   0.0312500

     Dense  grid:    60553 G-vectors     FFT dimensions: (  48,  48,  64)

     Smooth grid:    43255 G-vectors     FFT dimensions: (  48,  48,  60)

     Estimated max dynamical RAM per process >     352.30 MB

     Initial potential from superposition of free atoms

     starting charge   31.98276, renormalised to   32.00000
     Starting wfcs are   26 randomized atomic wfcs
     Checking if some PAW data can be deallocated... 

     total cpu time spent up to now is        7.0 secs

     Self-consistent Calculation

     iteration #  1     ecut=    50.00 Ry     beta= 0.70
     Davidson diagonalization with overlap
     ethr =  1.00E-02,  avg # of iterations =  3.9

     total cpu time spent up to now is       24.2 secs

     total energy              =    -279.10795826 Ry
     estimated scf accuracy    <       0.55149248 Ry

     iteration #  2     ecut=    50.00 Ry     beta= 0.70
     Davidson diagonalization with overlap
     ethr =  1.72E-03,  avg # of iterations =  2.0

     total cpu time spent up to now is       38.8 secs

     total energy              =    -279.14476251 Ry
     estimated scf accuracy    <       0.01006098 Ry

     iteration #  3     ecut=    50.00 Ry     beta= 0.70
     Davidson diagonalization with overlap
     ethr =  3.14E-05,  avg # of iterations =  8.8

     total cpu time spent up to now is       61.0 secs

     total energy              =    -279.14739053 Ry
     estimated scf accuracy    <       0.00037238 Ry

     iteration #  4     ecut=    50.00 Ry     beta= 0.70
     Davidson diagonalization with overlap
     ethr =  1.16E-06,  avg # of iterations =  4.8

     total cpu time spent up to now is       79.8 secs

     total energy              =    -279.14749380 Ry
     estimated scf accuracy    <       0.00004344 Ry

     iteration #  5     ecut=    50.00 Ry     beta= 0.70
     Davidson diagonalization with overlap
     ethr =  1.36E-07,  avg # of iterations =  2.2

     total cpu time spent up to now is       95.5 secs

     total energy              =    -279.14750139 Ry
     estimated scf accuracy    <       0.00000478 Ry

     iteration #  6     ecut=    50.00 Ry     beta= 0.70
     Davidson diagonalization with overlap
     ethr =  1.49E-08,  avg # of iterations =  2.1

     total cpu time spent up to now is      111.0 secs

     total energy              =    -279.14750196 Ry
     estimated scf accuracy    <       0.00000005 Ry

     iteration #  7     ecut=    50.00 Ry     beta= 0.70
     Davidson diagonalization with overlap
     ethr =  1.70E-10,  avg # of iterations =  4.7

     total cpu time spent up to now is      131.4 secs

     total energy              =    -279.14750200 Ry
     estimated scf accuracy    <       0.00000002 Ry

     iteration #  8     ecut=    50.00 Ry     beta= 0.70
     Davidson diagonalization with overlap
     ethr =  4.86E-11,  avg # of iterations =  2.1

     total cpu time spent up to now is      147.8 secs

     End of self-consistent calculation

          k = 0.0000 0.0000 0.0000 (  5399 PWs)   bands (ev):

   -49.8255 -49.8240 -21.7584 -21.7507 -21.7507 -21.7447 -21.7447 -21.7344
    -6.2370  -2.9951  -2.2679  -1.2822  -1.2822  -0.8760  -0.8760  -0.1021
     4.7475   4.8208   5.4556   6.2875

          k = 0.0000 0.0000 0.2248 (  5411 PWs)   bands (ev):

   -49.8253 -49.8242 -21.7549 -21.7526 -21.7526 -21.7428 -21.7428 -21.7380
    -5.9803  -4.0879  -1.6352  -1.6352  -1.2910  -0.3863  -0.3863  -0.2010
     4.7000   4.8323   6.5000   6.6705

          k = 0.0000 0.0000-0.4496 (  5444 PWs)   bands (ev):

   -49.8248 -49.8248 -21.7539 -21.7539 -21.7465 -21.7465 -21.7415 -21.7415
    -5.2347  -5.2347  -1.8151  -1.8151  -0.5312  -0.5312  -0.0563  -0.0563
     4.9938   4.9938   6.3206   6.3206

          k = 0.0000 0.1250-0.0562 (  5400 PWs)   bands (ev):

   -49.8255 -49.8240 -21.7582 -21.7511 -21.7509 -21.7446 -21.7444 -21.7347
    -6.1501  -3.1853  -2.1048  -1.5297  -1.2856  -0.9498  -0.8188  -0.0491
     4.8452   5.1111   5.5749   6.2998

          k = 0.0000 0.1250 0.1686 (  5418 PWs)   bands (ev):

   -49.8254 -49.8242 -21.7565 -21.7522 -21.7519 -21.7435 -21.7435 -21.7364
    -6.0231  -3.7528  -1.8673  -1.4988  -1.4733  -0.6515  -0.5463  -0.0845
     4.7876   5.0565   6.0610   6.5111

          k = 0.0000 0.1250-0.5058 (  5421 PWs)   bands (ev):

   -49.8249 -49.8246 -21.7545 -21.7537 -21.7489 -21.7445 -21.7417 -21.7408
    -5.4046  -4.9294  -2.1096  -1.7556  -0.6317  -0.3760  -0.1327  -0.1215
     5.0082   5.1809   6.0786   6.3916

          k = 0.0000 0.1250-0.2810 (  5413 PWs)   bands (ev):

   -49.8252 -49.8244 -21.7542 -21.7530 -21.7525 -21.7425 -21.7424 -21.7393
    -5.7723  -4.3681  -2.0143  -1.6659  -1.0128  -0.3789  -0.2843  -0.1476
     4.8718   5.0937   6.2750   6.4438

          k = 0.0000 0.2500-0.1124 (  5414 PWs)   bands (ev):

   -49.8254 -49.8242 -21.7576 -21.7520 -21.7515 -21.7441 -21.7438 -21.7355
    -5.9009  -3.5537  -2.0906  -1.8883  -1.2729  -0.9241  -0.7126  -0.0309
     5.0084   5.7587   5.8823   6.1885

          k = 0.0000 0.2500-0.5620 (  5409 PWs)   bands (ev):

   -49.8250 -49.8245 -21.7556 -21.7531 -21.7512 -21.7434 -21.7422 -21.7391
    -5.4330  -4.5531  -2.5934  -1.5872  -0.9381  -0.4072  -0.2845  -0.1491
     5.0724   5.7413   5.8460   6.3644

          k = 0.0000 0.3750-0.1686 (  5396 PWs)   bands (ev):

   -49.8252 -49.8243 -21.7570 -21.7531 -21.7520 -21.7433 -21.7431 -21.7365
    -5.5417  -3.9955  -2.4450  -1.9692  -1.2266  -0.6772  -0.6235  -0.1131
     5.2939   5.6630   5.9928   6.4625

          k = 0.0000 0.3750 0.0562 (  5413 PWs)   bands (ev):

   -49.8253 -49.8242 -21.7582 -21.7518 -21.7515 -21.7446 -21.7436 -21.7355
    -5.6403  -3.7487  -2.5268  -1.7950  -1.1054  -0.9893  -0.8139  -0.0850
     5.3659   5.5662   5.8540   6.5435

          k = 0.0000 0.3750-0.6182 (  5405 PWs)   bands (ev):

   -49.8251 -49.8244 -21.7565 -21.7530 -21.7524 -21.7429 -21.7427 -21.7376
    -5.3604  -4.2995  -2.7688  -1.5525  -1.3497  -0.5238  -0.3955  -0.2006
     5.2601   5.7002   6.0455   6.4410

          k = 0.0000 0.3750-0.3934 (  5422 PWs)   bands (ev):

   -49.8250 -49.8245 -21.7571 -21.7528 -21.7506 -21.7444 -21.7425 -21.7377
    -5.1558  -4.5615  -2.9882  -1.4184  -1.0698  -0.5966  -0.3470  -0.2280
     5.1898   5.6238   6.2371   6.5184

          k = 0.0000-0.5000 0.2248 (  5414 PWs)   bands (ev):

   -49.8251 -49.8244 -21.7567 -21.7537 -21.7522 -21.7430 -21.7426 -21.7371
    -5.3028  -4.2730  -2.5703  -2.0219  -1.1952  -0.6563  -0.3959  -0.2457
     5.4143   5.8210   5.9887   5.9899

          k = 0.0000-0.5000 0.4496 (  5421 PWs)   bands (ev):

   -49.8251 -49.8244 -21.7580 -21.7522 -21.7510 -21.7448 -21.7430 -21.7363
    -5.3186  -4.1784  -2.9632  -1.3358  -1.2070  -0.9301  -0.5913  -0.1636
     5.2591   5.6965   6.0110   6.7066

          k = 0.1250 0.1250-0.1124 (  5412 PWs)   bands (ev):

   -49.8254 -49.8241 -21.7576 -21.7520 -21.7512 -21.7445 -21.7435 -21.7354
    -6.0328  -3.4585  -1.9160  -1.6514  -1.4774  -0.9303  -0.6794  -0.0425
     5.0969   5.1455   5.7740   6.3338

          k = 0.1250 0.1250-0.5620 (  5420 PWs)   bands (ev):

   -49.8250 -49.8245 -21.7543 -21.7541 -21.7507 -21.7436 -21.7414 -21.7402
    -5.5400  -4.6160  -2.0343  -2.0077  -0.7662  -0.3456  -0.2170  -0.1810
     5.1270   5.2113   6.0869   6.3029

          k = 0.1250 0.2500-0.1686 (  5405 PWs)   bands (ev):

   -49.8253 -49.8242 -21.7568 -21.7532 -21.7515 -21.7444 -21.7424 -21.7364
    -5.7586  -3.7743  -2.2187  -1.7181  -1.4709  -0.9065  -0.5966  -0.0311
     5.2344   5.5658   6.0223   6.3807

          k = 0.1250 0.2500 0.0562 (  5414 PWs)   bands (ev):

   -49.8254 -49.8242 -21.7582 -21.7522 -21.7506 -21.7453 -21.7433 -21.7350
    -5.8774  -3.3864  -2.0026  -1.9205  -1.3702  -1.2223  -0.8379  -0.0229
     5.3397   5.5015   5.8926   6.1620

          k = 0.1250 0.2500-0.6182 (  5409 PWs)   bands (ev):

   -49.8251 -49.8244 -21.7556 -21.7538 -21.7518 -21.7438 -21.7415 -21.7384
    -5.5260  -4.2689  -2.4664  -1.7961  -1.0925  -0.6042  -0.3982  -0.0931
     5.2364   5.7841   5.8319   6.3111

          k = 0.1250 0.2500-0.3934 (  5417 PWs)   bands (ev):

   -49.8249 -49.8246 -21.7558 -21.7539 -21.7494 -21.7452 -21.7413 -21.7392
    -5.1933  -4.7489  -2.5973  -1.8827  -0.6645  -0.4473  -0.3042  -0.2477
     5.2910   5.6619   5.8543   6.4375

          k = 0.1250 0.3750-0.2248 (  5404 PWs)   bands (ev):

   -49.8251 -49.8244 -21.7565 -21.7541 -21.7517 -21.7442 -21.7416 -21.7372
    -5.3947  -4.1194  -2.5694  -1.7633  -1.4560  -0.7788  -0.5531  -0.1082
     5.3533   5.6431   6.1000   6.3689

          k = 0.1250 0.3750 0.0000 (  5400 PWs)   bands (ev):

   -49.8253 -49.8243 -21.7582 -21.7528 -21.7504 -21.7458 -21.7427 -21.7354
    -5.5863  -3.6971  -2.5021  -1.6700  -1.4068  -1.0110  -1.0020  -0.0478
     5.2657   5.7173   5.7265   6.8358

          k = 0.1250 0.3750-0.4496 (  5423 PWs)   bands (ev):

   -49.8250 -49.8246 -21.7572 -21.7534 -21.7498 -21.7455 -21.7417 -21.7377
    -5.0436  -4.5859  -2.9590  -1.6694  -0.8708  -0.6419  -0.4889  -0.3367
     5.4273   5.5700   6.0695   6.6653

          k = 0.1250-0.5000 0.1686 (  5407 PWs)   bands (ev):

   -49.8251 -49.8244 -21.7570 -21.7539 -21.7516 -21.7444 -21.7416 -21.7370
    -5.2402  -4.2318  -2.6179  -1.8703  -1.3944  -0.8123  -0.3851  -0.3600
     5.5483   5.5809   6.0646   6.3283

          k = 0.1250-0.5000 0.3934 (  5404 PWs)   bands (ev):

   -49.8251 -49.8244 -21.7577 -21.7534 -21.7504 -21.7456 -21.7419 -21.7365
    -5.2525  -4.1662  -2.8478  -1.5405  -1.3850  -0.8795  -0.7199  -0.0942
     5.1691   5.5968   6.1128   6.6193

          k = 0.1250-0.3750 0.1124 (  5401 PWs)   bands (ev):

   -49.8252 -49.8243 -21.7577 -21.7531 -21.7512 -21.7449 -21.7425 -21.7359
    -5.5363  -3.8420  -2.3879  -1.9065  -1.4153  -0.9088  -0.6844  -0.2211
     5.3361   5.8183   6.0683   6.6507

          k = 0.1250-0.3750 0.3372 (  5410 PWs)   bands (ev):

   -49.8250 -49.8245 -21.7567 -21.7539 -21.7508 -21.7448 -21.7413 -21.7379
    -5.1903  -4.4101  -2.8300  -1.6963  -1.2783  -0.5363  -0.4529  -0.2093
     5.3038   5.5433   6.0645   6.3666

          k = 0.1250-0.1250 0.0000 (  5423 PWs)   bands (ev):

   -49.8255 -49.8241 -21.7584 -21.7513 -21.7506 -21.7451 -21.7441 -21.7345
    -6.0956  -3.1172  -2.1576  -1.4531  -1.4111  -1.1733  -0.8490  -0.0289
     5.1903   5.2412   5.4856   6.1278

          k = 0.1250-0.1250 0.2248 (  5410 PWs)   bands (ev):

   -49.8253 -49.8243 -21.7554 -21.7532 -21.7521 -21.7435 -21.7423 -21.7376
    -5.8458  -4.0406  -1.9076  -1.8702  -1.1924  -0.5960  -0.4073  -0.0904
     5.0926   5.0965   6.0539   6.5947

          k = 0.1250-0.1250-0.4496 (  5398 PWs)   bands (ev):

   -49.8248 -49.8248 -21.7545 -21.7544 -21.7470 -21.7467 -21.7410 -21.7408
    -5.1262  -5.1234  -2.0817  -2.0561  -0.4723  -0.4044  -0.1905  -0.1509
     5.1783   5.2453   6.1237   6.1578

          k = 0.2500 0.2500-0.2248 (  5412 PWs)   bands (ev):

   -49.8251 -49.8244 -21.7563 -21.7545 -21.7513 -21.7449 -21.7410 -21.7372
    -5.4690  -3.9936  -2.2860  -2.0852  -1.3602  -0.9339  -0.5491  -0.1530
     5.4178   5.7017   6.0707   6.4538

          k = 0.2500 0.2500 0.0000 (  5387 PWs)   bands (ev):

   -49.8253 -49.8242 -21.7582 -21.7530 -21.7502 -21.7462 -21.7426 -21.7351
    -5.6929  -3.4396  -1.9428  -1.7806  -1.6356  -1.5711  -0.9085  -0.1372
     5.1330   6.1326   6.3416   6.3578

          k = 0.2500 0.2500-0.4496 (  5416 PWs)   bands (ev):

   -49.8248 -49.8248 -21.7557 -21.7553 -21.7479 -21.7473 -21.7397 -21.7394
    -4.8490  -4.8395  -2.4499  -2.4009  -0.6400  -0.5764  -0.4035  -0.3898
     5.4618   5.5834   5.8505   6.2192

          k = 0.2500 0.3750-0.2810 (  5407 PWs)   bands (ev):

   -49.8250 -49.8245 -21.7565 -21.7551 -21.7508 -21.7456 -21.7402 -21.7376
    -5.1143  -4.2141  -2.6018  -1.9915  -1.4066  -0.9868  -0.5882  -0.3094
     5.4193   5.5722   6.2548   6.5584

          k = 0.2500 0.3750-0.0562 (  5397 PWs)   bands (ev):

   -49.8252 -49.8244 -21.7579 -21.7541 -21.7500 -21.7466 -21.7414 -21.7358
    -5.3812  -3.7518  -2.2932  -1.8416  -1.5958  -1.3546  -1.0308  -0.1554
     4.9489   6.0620   6.4104   6.8144

          k = 0.2500 0.3750-0.7306 (  5395 PWs)   bands (ev):

   -49.8251 -49.8244 -21.7571 -21.7548 -21.7507 -21.7458 -21.7408 -21.7366
    -5.2880  -3.9446  -2.3784  -1.8184  -1.7046  -1.2176  -0.7947  -0.1785
     5.1324   5.7858   6.5969   6.7750

          k = 0.2500 0.3750-0.5058 (  5404 PWs)   bands (ev):

   -49.8249 -49.8246 -21.7568 -21.7549 -21.7495 -21.7465 -21.7402 -21.7379
    -4.9041  -4.4732  -2.7512  -2.1162  -1.0067  -0.8406  -0.6250  -0.4125
     5.2547   5.7840   6.1375   6.2964

          k = 0.2500-0.5000 0.1124 (  5395 PWs)   bands (ev):

   -49.8250 -49.8245 -21.7574 -21.7547 -21.7503 -21.7462 -21.7406 -21.7369
    -5.0572  -4.1627  -2.6088  -1.8689  -1.4733  -1.1692  -0.7536  -0.3678
     5.1297   5.8670   6.4652   6.6775

          k = 0.3750 0.3750-0.3372 (  5403 PWs)   bands (ev):

   -49.8249 -49.8246 -21.7564 -21.7562 -21.7496 -21.7471 -21.7389 -21.7381
    -4.7703  -4.3353  -2.5442  -2.2203  -1.5119  -1.0480  -0.6770  -0.5780
     5.3799   5.4129   5.9863   6.7954

          k = 0.3750 0.3750-0.1124 (  5387 PWs)   bands (ev):

   -49.8250 -49.8245 -21.7574 -21.7553 -21.7498 -21.7471 -21.7401 -21.7366
    -5.0605  -3.9560  -2.2824  -1.9719  -1.6128  -1.5326  -1.0730  -0.3325
     4.9028   6.0113   6.6817   6.8028

          k = 0.3750-0.5000 0.0562 (  5386 PWs)   bands (ev):

   -49.8249 -49.8246 -21.7572 -21.7557 -21.7493 -21.7477 -21.7393 -21.7372
    -4.7755  -4.2120  -2.4104  -2.0812  -1.6583  -1.4183  -0.9115  -0.4707
     4.9120   5.5529   6.6427   7.0856

          k = 0.3750-0.5000 0.2810 (  5383 PWs)   bands (ev):

   -49.8249 -49.8246 -21.7569 -21.7561 -21.7496 -21.7474 -21.7390 -21.7375
    -4.7706  -4.2203  -2.4515  -1.9743  -1.7568  -1.3274  -0.9148  -0.5424
     5.2198   5.7059   6.1008   6.8011

          k = 0.3750-0.3750 0.0000 (  5389 PWs)   bands (ev):

   -49.8250 -49.8245 -21.7577 -21.7550 -21.7495 -21.7474 -21.7404 -21.7363
    -5.1008  -3.8894  -2.0474  -1.9760  -1.9727  -1.3549  -1.1889  -0.3067
     4.7735   5.9535   6.8476   7.2039

          k = 0.3750-0.3750 0.2248 (  5407 PWs)   bands (ev):

   -49.8250 -49.8245 -21.7568 -21.7559 -21.7501 -21.7467 -21.7395 -21.7373
    -4.9451  -4.1228  -2.4807  -1.8948  -1.7712  -1.2330  -0.8726  -0.4485
     5.2780   5.7777   6.0794   6.8876

          k = 0.3750-0.3750-0.4496 (  5400 PWs)   bands (ev):

   -49.8248 -49.8248 -21.7565 -21.7562 -21.7485 -21.7480 -21.7386 -21.7384
    -4.5646  -4.5533  -2.4797  -2.4282  -1.2345  -1.2120  -0.5952  -0.5714
     5.2035   5.2564   6.3921   6.5329

          k =-0.5000-0.5000 0.4496 (  5378 PWs)   bands (ev):

   -49.8248 -49.8248 -21.7566 -21.7566 -21.7486 -21.7486 -21.7381 -21.7381
    -4.4535  -4.4535  -2.1090  -2.1090  -1.8361  -1.8361  -0.6585  -0.6585
     5.0468   5.0468   7.1982   7.1983

          k =-0.5000-0.5000 0.6744 (  5348 PWs)   bands (ev):

   -49.8248 -49.8248 -21.7567 -21.7567 -21.7485 -21.7485 -21.7381 -21.7381
    -4.4508  -4.4508  -2.2883  -2.2883  -1.4887  -1.4887  -0.8604  -0.8604
     5.5587   5.5587   6.1923   6.1923

          k = 0.2500 0.1250 0.1686 (  5405 PWs)   bands (ev):

   -49.8253 -49.8242 -21.7569 -21.7532 -21.7515 -21.7443 -21.7425 -21.7363
    -5.7586  -3.7759  -2.1810  -1.7707  -1.5081  -0.8283  -0.5497  -0.1122
     5.2251   5.7301   5.8488   6.5298

          k = 0.2500 0.1250-0.0562 (  5414 PWs)   bands (ev):

   -49.8254 -49.8242 -21.7582 -21.7521 -21.7507 -21.7452 -21.7434 -21.7350
    -5.8773  -3.3895  -2.0329  -1.8700  -1.4223  -1.1899  -0.7866  -0.0889
     5.2926   5.5578   5.9981   6.5133

          k = 0.2500 0.1250 0.6182 (  5409 PWs)   bands (ev):

   -49.8251 -49.8244 -21.7554 -21.7540 -21.7516 -21.7439 -21.7414 -21.7384
    -5.5261  -4.2690  -2.4370  -1.8472  -1.1376  -0.5005  -0.3308  -0.1921
     5.2219   5.7316   5.8982   6.1775

          k = 0.2500 0.1250 0.3934 (  5417 PWs)   bands (ev):

   -49.8249 -49.8246 -21.7557 -21.7542 -21.7491 -21.7455 -21.7410 -21.7394
    -5.1945  -4.7474  -2.5714  -1.9302  -0.7258  -0.3862  -0.2837  -0.2281
     5.2034   5.6512   5.7970   6.4499

          k = 0.3750 0.1250 0.2248 (  5404 PWs)   bands (ev):

   -49.8251 -49.8244 -21.7565 -21.7541 -21.7516 -21.7443 -21.7415 -21.7372
    -5.3948  -4.1205  -2.5418  -1.7958  -1.5253  -0.6838  -0.3954  -0.2902
     5.4782   5.6589   5.8401   6.5957

          k = 0.3750 0.1250 0.0000 (  5400 PWs)   bands (ev):

   -49.8253 -49.8243 -21.7583 -21.7525 -21.7507 -21.7454 -21.7430 -21.7354
    -5.5857  -3.7043  -2.5126  -1.6260  -1.4169  -1.0555  -0.8599  -0.2083
     5.2699   5.8562   6.2558   6.6558

          k = 0.3750 0.1250 0.4496 (  5423 PWs)   bands (ev):

   -49.8250 -49.8246 -21.7570 -21.7538 -21.7493 -21.7461 -21.7413 -21.7378
    -5.0485  -4.5785  -2.9400  -1.7245  -0.9345  -0.7344  -0.4288  -0.1579
     5.2180   5.4813   6.0827   6.4272

          k =-0.5000 0.1250-0.1686 (  5407 PWs)   bands (ev):

   -49.8251 -49.8244 -21.7569 -21.7541 -21.7514 -21.7446 -21.7415 -21.7370
    -5.2411  -4.2289  -2.6057  -1.8937  -1.4126  -0.7818  -0.5628  -0.1617
     5.3219   5.6570   6.0893   6.3060

          k =-0.5000 0.1250-0.3934 (  5404 PWs)   bands (ev):

   -49.8251 -49.8244 -21.7578 -21.7530 -21.7508 -21.7452 -21.7422 -21.7365
    -5.2504  -4.1738  -2.8600  -1.5135  -1.3324  -0.8154  -0.6923  -0.3043
     5.3617   5.7371   6.1911   6.7025

          k =-0.3750 0.1250-0.1124 (  5401 PWs)   bands (ev):

   -49.8252 -49.8243 -21.7576 -21.7533 -21.7510 -21.7451 -21.7423 -21.7360
    -5.5367  -3.8370  -2.3891  -1.9228  -1.3504  -0.9873  -0.7932  -0.0502
     5.3086   5.5243   6.0592   6.6025

          k =-0.3750 0.1250-0.3372 (  5410 PWs)   bands (ev):

   -49.8250 -49.8245 -21.7568 -21.7535 -21.7512 -21.7445 -21.7416 -21.7378
    -5.1884  -4.4134  -2.8516  -1.6436  -1.2102  -0.6410  -0.3891  -0.2984
     5.3884   5.7062   6.0261   6.4045

          k = 0.3750 0.2500 0.2810 (  5407 PWs)   bands (ev):

   -49.8250 -49.8245 -21.7564 -21.7553 -21.7507 -21.7457 -21.7401 -21.7377
    -5.1153  -4.2122  -2.5612  -2.0534  -1.4780  -0.8720  -0.5755  -0.3338
     5.4597   5.6524   5.9360   6.3766

          k = 0.3750 0.2500 0.0562 (  5397 PWs)   bands (ev):

   -49.8252 -49.8244 -21.7579 -21.7539 -21.7501 -21.7464 -21.7415 -21.7358
    -5.3804  -3.7598  -2.3092  -1.8153  -1.5114  -1.4288  -0.9699  -0.2636
     4.9920   6.3839   6.5412   6.8385

          k = 0.3750 0.2500 0.7306 (  5395 PWs)   bands (ev):

   -49.8251 -49.8244 -21.7571 -21.7547 -21.7507 -21.7458 -21.7408 -21.7366
    -5.2876  -3.9483  -2.3480  -1.8423  -1.7621  -1.1442  -0.7313  -0.2780
     5.1895   5.9979   6.2311   6.7707

          k = 0.3750 0.2500 0.5058 (  5404 PWs)   bands (ev):

   -49.8249 -49.8246 -21.7566 -21.7553 -21.7492 -21.7468 -21.7398 -21.7381
    -4.9100  -4.4639  -2.7135  -2.1810  -1.1038  -0.7893  -0.6366  -0.2974
     5.2743   5.6753   5.7812   6.3386

          k =-0.5000 0.2500-0.1124 (  5395 PWs)   bands (ev):

   -49.8250 -49.8245 -21.7572 -21.7550 -21.7501 -21.7464 -21.7403 -21.7370
    -5.0602  -4.1535  -2.5856  -1.9107  -1.5633  -1.0747  -0.8444  -0.2311
     5.0600   5.7934   6.2825   6.4881

          k =-0.5000 0.3750-0.0562 (  5386 PWs)   bands (ev):

   -49.8249 -49.8246 -21.7571 -21.7559 -21.7491 -21.7479 -21.7392 -21.7373
    -4.7794  -4.2035  -2.3880  -2.1118  -1.7003  -1.4071  -0.9042  -0.4280
     4.9054   5.5114   6.5199   6.9916

          k =-0.5000 0.3750-0.2810 (  5383 PWs)   bands (ev):

   -49.8249 -49.8246 -21.7569 -21.7560 -21.7496 -21.7473 -21.7391 -21.7374
    -4.7689  -4.2239  -2.4552  -1.9876  -1.7010  -1.3631  -0.8938  -0.5711
     5.2269   5.6927   6.1816   6.8003

     the Fermi energy is     0.0098 ev

!    total energy              =    -279.14750200 Ry
     estimated scf accuracy    <          1.4E-09 Ry
     smearing contrib. (-TS)   =       0.00032784 Ry
     internal energy E=F+TS    =    -279.14782985 Ry

     The total energy is F=E-TS. E is the sum of the following terms:
     one-electron contribution =    -172.69129385 Ry
     hartree contribution      =      92.93379747 Ry
     xc contribution           =     -39.59927334 Ry
     ewald contribution        =     -90.40844892 Ry
     one-center paw contrib.   =     -69.38261121 Ry

     convergence has been achieved in   8 iterations

     Forces acting on atoms (cartesian axes, Ry/au):

     atom    1 type  1   force =     0.00000000    0.00000000    0.00000000
     atom    2 type  1   force =     0.00000000    0.00000000    0.00000000
     atom    3 type  3   force =     0.00000000    0.00000000   -0.00000000
     atom    4 type  3   force =     0.00000000    0.00000000    0.00000000
     atom    5 type  2   force =    -0.00205973   -0.00296012   -0.00270707
     atom    6 type  2   force =    -0.00296012    0.00205973   -0.00270707
     atom    7 type  2   force =    -0.00296012    0.00205973    0.00270707
     atom    8 type  2   force =    -0.00205973   -0.00296012    0.00270707
     atom    9 type  2   force =     0.00205973    0.00296012   -0.00270707
     atom   10 type  2   force =     0.00205973    0.00296012    0.00270707
     atom   11 type  2   force =     0.00296012   -0.00205973    0.00270707
     atom   12 type  2   force =     0.00296012   -0.00205973   -0.00270707

     Total force =     0.012754     Total SCF correction =     0.000001


     Computing stress (Cartesian axis) and pressure

          total   stress  (Ry/bohr**3)                   (kbar)     P=       13.24
   0.00009242   0.00000000   0.00000000           13.60        0.00        0.00
  -0.00000000   0.00009242   0.00000000           -0.00       13.60        0.00
   0.00000000   0.00000000   0.00008513            0.00        0.00       12.52


     Writing output data file ./results/NaAlH4_884_50_250.save/

     init_run     :     26.59s CPU      6.94s WALL (       1 calls)
     electrons    :    594.44s CPU    140.79s WALL (       1 calls)
     forces       :      6.11s CPU      1.70s WALL (       1 calls)
     stress       :     32.11s CPU      9.01s WALL (       1 calls)

     Called by init_run:
     wfcinit      :     25.02s CPU      5.91s WALL (       1 calls)
     potinit      :      0.29s CPU      0.31s WALL (       1 calls)
     hinit0       :      0.57s CPU      0.46s WALL (       1 calls)

     Called by electrons:
     c_bands      :    497.55s CPU    114.15s WALL (       8 calls)
     sum_band     :     90.52s CPU     23.01s WALL (       8 calls)
     v_of_rho     :      0.61s CPU      0.39s WALL (       9 calls)
     newd         :      4.63s CPU      1.95s WALL (       9 calls)
     PAW_pot      :      1.61s CPU      1.61s WALL (       9 calls)
     mix_rho      :      0.17s CPU      0.06s WALL (       8 calls)

     Called by c_bands:
     init_us_2    :     19.85s CPU      3.57s WALL (    1254 calls)
     cegterg      :    451.37s CPU    103.15s WALL (     528 calls)

     Called by *egterg:
     cdiaghg      :      9.28s CPU      1.05s WALL (    2539 calls)
     h_psi        :    404.50s CPU    100.82s WALL (    2605 calls)
     s_psi        :     13.13s CPU      1.48s WALL (    2605 calls)
     g_psi        :      6.85s CPU      0.74s WALL (    2011 calls)

     Called by h_psi:
     h_psi:calbec :     11.70s CPU      2.72s WALL (    2605 calls)
     vloc_psi     :    376.31s CPU     95.84s WALL (    2605 calls)
     add_vuspsi   :     14.28s CPU      1.88s WALL (    2605 calls)

     General routines
     calbec       :     17.52s CPU      4.29s WALL (    3463 calls)
     fft          :      0.29s CPU      0.16s WALL (     140 calls)
     ffts         :      0.14s CPU      0.06s WALL (      17 calls)
     fftw         :    372.21s CPU     96.42s WALL (   73662 calls)
     interpolate  :      0.04s CPU      0.04s WALL (       9 calls)

     Parallel routines

     PWSCF        :  10m59.64s CPU   2m38.74s WALL


   This run was terminated on:  21:22:37  17Oct2023            

=------------------------------------------------------------------------------=
   JOB DONE.
=------------------------------------------------------------------------------=
