
     Program PWSCF v.6.7MaX starts on 17Oct2023 at 21:24: 2 

     This program is part of the open-source Quantum ESPRESSO suite
     for quantum simulation of materials; please cite
         "P. Giannozzi et al., J. Phys.:Condens. Matter 21 395502 (2009);
         "P. Giannozzi et al., J. Phys.:Condens. Matter 29 465901 (2017);
          URL http://www.quantum-espresso.org", 
     in publications or presentations arising from this work. More details at
     http://www.quantum-espresso.org/quote

     Parallel version (MPI), running on     1 processors

     MPI processes distributed on     1 nodes
     Reading input from NaAlH4.in

     Current dimensions of program PWSCF are:
     Max number of different atomic species (ntypx) = 10
     Max number of k-points (npk) =  40000
     Max angular momentum in pseudopotentials (lmaxx) =  3
     file Al.pbe-n-kjpaw_psl.1.0.0.UPF: wavefunction(s)  3S 3P renormalized

     IMPORTANT: XC functional enforced from input :
     Exchange-correlation= PBE
                           (   1   4   3   4   0   0   0)
     Any further DFT definition will be discarded
     Please, verify this is what you really want


     Subspace diagonalization in iterative solution of the eigenvalue problem:
     a serial algorithm will be used

     Message from routine setup:
     using ibrav=0 with symmetry is DISCOURAGED, use correct ibrav instead

     G-vector sticks info
     --------------------
     sticks:   dense  smooth     PW     G-vecs:    dense   smooth      PW
     Sum        1741    1373    421                60553    43255    7285



     bravais-lattice index     =            0
     lattice parameter (alat)  =       9.3373  a.u.
     unit-cell volume          =     905.3038 (a.u.)^3
     number of atoms/cell      =           12
     number of atomic types    =            3
     number of electrons       =        32.00
     number of Kohn-Sham states=           20
     kinetic-energy cutoff     =      50.0000  Ry
     charge density cutoff     =     250.0000  Ry
     scf convergence threshold =      1.0E-08
     mixing beta               =       0.7000
     number of iterations used =            8  plain     mixing
     Exchange-correlation= PBE
                           (   1   4   3   4   0   0   0)

     celldm(1)=   9.337326  celldm(2)=   0.000000  celldm(3)=   0.000000
     celldm(4)=   0.000000  celldm(5)=   0.000000  celldm(6)=   0.000000

     crystal axes: (cart. coord. in units of alat)
               a(1) = (   1.000000   0.000000   0.000000 )  
               a(2) = (   0.000000   1.000000   0.000000 )  
               a(3) = (   0.500000   0.500000   1.112056 )  

     reciprocal axes: (cart. coord. in units 2 pi/alat)
               b(1) = (  1.000000  0.000000 -0.449617 )  
               b(2) = (  0.000000  1.000000 -0.449617 )  
               b(3) = (  0.000000  0.000000  0.899235 )  


     PseudoPot. # 1 for Al read from file:
     /home/vojta/Dokumenty/UA_CompPhys/pseudopotentials/Al.pbe-n-kjpaw_psl.1.0.0.UPF
     MD5 check sum: cfc449ca30b5f3223ec38ddd88ac046d
     Pseudo is Projector augmented-wave + core cor, Zval =  3.0
     Generated using "atomic" code by A. Dal Corso  v.5.1
     Shape of augmentation charge: PSQ
     Using radial grid of 1135 points,  6 beta functions with: 
                l(1) =   0
                l(2) =   0
                l(3) =   1
                l(4) =   1
                l(5) =   2
                l(6) =   2
     Q(r) pseudized with 0 coefficients 


     PseudoPot. # 2 for H  read from file:
     /home/vojta/Dokumenty/UA_CompPhys/pseudopotentials/H.pbe-rrkjus_psl.1.0.0.UPF
     MD5 check sum: f52b6d4d1c606e5624b1dc7b2218f220
     Pseudo is Ultrasoft, Zval =  1.0
     Generated using "atomic" code by A. Dal Corso  v.5.1
     Using radial grid of  929 points,  2 beta functions with: 
                l(1) =   0
                l(2) =   0
     Q(r) pseudized with 0 coefficients 


     PseudoPot. # 3 for Na read from file:
     /home/vojta/Dokumenty/UA_CompPhys/pseudopotentials/na_pbe_v1.5.uspp.F.UPF
     MD5 check sum: 44600605ef58000f06b90626533354dc
     Pseudo is Ultrasoft, Zval =  9.0
     Generated by new atomic code, or converted to UPF format
     Using radial grid of  819 points,  5 beta functions with: 
                l(1) =   0
                l(2) =   0
                l(3) =   1
                l(4) =   1
                l(5) =   2
     Q(r) pseudized with  8 coefficients,  rinner =    1.250   1.250   1.250
                                                       1.250   1.250

     atomic species   valence    mass     pseudopotential
        Al             3.00    26.98100     Al( 1.00)
        H              1.00     1.00750     H ( 1.00)
        Na             9.00    22.98900     Na( 1.00)

      8 Sym. Ops., with inversion, found ( 6 have fractional translation)



   Cartesian axes

     site n.     atom                  positions (alat units)
         1           Al  tau(   1) = (   1.0000000   0.2500000   0.2780141  )
         2           Al  tau(   2) = (   0.5000000   1.2500000   0.8340423  )
         3           Na  tau(   3) = (   0.5000000   0.7500000   0.2780141  )
         4           Na  tau(   4) = (   1.0000000   0.7500000   0.8340423  )
         5           H   tau(   5) = (   0.3578100   1.0135100   0.6538447  )
         6           H   tau(   6) = (   0.7635100   0.3921900   0.0978165  )
         7           H   tau(   7) = (   1.2635100   1.3921900   1.0142399  )
         8           H   tau(   8) = (   0.8578100   1.0135100   0.4582117  )
         9           H   tau(   9) = (   0.6421900   0.4864900   0.6538447  )
        10           H   tau(  10) = (   1.1421900   0.4864900   0.4582117  )
        11           H   tau(  11) = (   0.7364900   1.1078100   1.0142399  )
        12           H   tau(  12) = (   0.2364900   0.1078100   0.0978165  )

     number of k points=   123  Marzari-Vanderbilt smearing, width (Ry)=  0.0050

     Number of k-points >= 100: set verbosity='high' to print them.

     Dense  grid:    60553 G-vectors     FFT dimensions: (  48,  48,  64)

     Smooth grid:    43255 G-vectors     FFT dimensions: (  48,  48,  60)

     Estimated max dynamical RAM per process >     446.32 MB

     Initial potential from superposition of free atoms

     starting charge   31.98276, renormalised to   32.00000
     Starting wfcs are   26 randomized atomic wfcs
     Checking if some PAW data can be deallocated... 

     total cpu time spent up to now is       12.5 secs

     Self-consistent Calculation

     iteration #  1     ecut=    50.00 Ry     beta= 0.70
     Davidson diagonalization with overlap
     ethr =  1.00E-02,  avg # of iterations =  3.9

     total cpu time spent up to now is       44.6 secs

     total energy              =    -279.10789066 Ry
     estimated scf accuracy    <       0.55176409 Ry

     iteration #  2     ecut=    50.00 Ry     beta= 0.70
     Davidson diagonalization with overlap
     ethr =  1.72E-03,  avg # of iterations =  2.0

     total cpu time spent up to now is       73.1 secs

     total energy              =    -279.14477324 Ry
     estimated scf accuracy    <       0.01004267 Ry

     iteration #  3     ecut=    50.00 Ry     beta= 0.70
     Davidson diagonalization with overlap
     c_bands:  1 eigenvalues not converged
     ethr =  3.14E-05,  avg # of iterations =  8.8

     total cpu time spent up to now is      119.8 secs

     total energy              =    -279.14738794 Ry
     estimated scf accuracy    <       0.00037347 Ry

     iteration #  4     ecut=    50.00 Ry     beta= 0.70
     Davidson diagonalization with overlap
     ethr =  1.17E-06,  avg # of iterations =  5.0

     total cpu time spent up to now is      157.5 secs

     total energy              =    -279.14749276 Ry
     estimated scf accuracy    <       0.00004375 Ry

     iteration #  5     ecut=    50.00 Ry     beta= 0.70
     Davidson diagonalization with overlap
     ethr =  1.37E-07,  avg # of iterations =  2.3

     total cpu time spent up to now is      188.5 secs

     total energy              =    -279.14750035 Ry
     estimated scf accuracy    <       0.00000474 Ry

     iteration #  6     ecut=    50.00 Ry     beta= 0.70
     Davidson diagonalization with overlap
     ethr =  1.48E-08,  avg # of iterations =  2.1

     total cpu time spent up to now is      220.2 secs

     total energy              =    -279.14750092 Ry
     estimated scf accuracy    <       0.00000006 Ry

     iteration #  7     ecut=    50.00 Ry     beta= 0.70
     Davidson diagonalization with overlap
     ethr =  1.78E-10,  avg # of iterations =  4.7

     total cpu time spent up to now is      260.6 secs

     total energy              =    -279.14750096 Ry
     estimated scf accuracy    <       0.00000001 Ry

     iteration #  8     ecut=    50.00 Ry     beta= 0.70
     Davidson diagonalization with overlap
     ethr =  3.48E-11,  avg # of iterations =  2.3

     total cpu time spent up to now is      293.4 secs

     End of self-consistent calculation

     Number of k-points >= 100: set verbosity='high' to print the bands.

     the Fermi energy is     0.0059 ev

!    total energy              =    -279.14750096 Ry
     estimated scf accuracy    <          3.4E-09 Ry
     smearing contrib. (-TS)   =       0.00036427 Ry
     internal energy E=F+TS    =    -279.14786523 Ry

     The total energy is F=E-TS. E is the sum of the following terms:
     one-electron contribution =    -172.69134549 Ry
     hartree contribution      =      92.93383506 Ry
     xc contribution           =     -39.59928769 Ry
     ewald contribution        =     -90.40844892 Ry
     one-center paw contrib.   =     -69.38261818 Ry

     convergence has been achieved in   8 iterations

     Forces acting on atoms (cartesian axes, Ry/au):

     atom    1 type  1   force =     0.00000000    0.00000000   -0.00000000
     atom    2 type  1   force =     0.00000000    0.00000000   -0.00000000
     atom    3 type  3   force =     0.00000000    0.00000000   -0.00000000
     atom    4 type  3   force =     0.00000000    0.00000000    0.00000000
     atom    5 type  2   force =    -0.00208291   -0.00295010   -0.00269582
     atom    6 type  2   force =    -0.00295010    0.00208291   -0.00269582
     atom    7 type  2   force =    -0.00295010    0.00208291    0.00269582
     atom    8 type  2   force =    -0.00208291   -0.00295010    0.00269582
     atom    9 type  2   force =     0.00208291    0.00295010   -0.00269582
     atom   10 type  2   force =     0.00208291    0.00295010    0.00269582
     atom   11 type  2   force =     0.00295010   -0.00208291    0.00269582
     atom   12 type  2   force =     0.00295010   -0.00208291   -0.00269582

     Total force =     0.012746     Total SCF correction =     0.000002


     Computing stress (Cartesian axis) and pressure

          total   stress  (Ry/bohr**3)                   (kbar)     P=       13.24
   0.00009211  -0.00000000   0.00000000           13.55       -0.00        0.00
   0.00000000   0.00009211   0.00000000            0.00       13.55        0.00
   0.00000000   0.00000000   0.00008588            0.00        0.00       12.63


     Writing output data file ./results/NaAlH4_10105_50_250.save/

     init_run     :     47.67s CPU     12.39s WALL (       1 calls)
     electrons    :   1185.95s CPU    280.93s WALL (       1 calls)
     forces       :      9.63s CPU      2.13s WALL (       1 calls)
     stress       :     54.69s CPU     15.13s WALL (       1 calls)

     Called by init_run:
     wfcinit      :     46.03s CPU     11.30s WALL (       1 calls)
     potinit      :      0.28s CPU      0.31s WALL (       1 calls)
     hinit0       :      0.50s CPU      0.45s WALL (       1 calls)

     Called by electrons:
     c_bands      :   1003.36s CPU    232.33s WALL (       8 calls)
     sum_band     :    175.85s CPU     44.73s WALL (       8 calls)
     v_of_rho     :      0.59s CPU      0.42s WALL (       9 calls)
     newd         :      4.96s CPU      2.12s WALL (       9 calls)
     PAW_pot      :      1.69s CPU      1.69s WALL (       9 calls)
     mix_rho      :      0.22s CPU      0.06s WALL (       8 calls)

     Called by c_bands:
     init_us_2    :     38.39s CPU      6.96s WALL (    2337 calls)
     cegterg      :    912.11s CPU    210.87s WALL (     984 calls)

     Called by *egterg:
     cdiaghg      :     18.79s CPU      2.51s WALL (    4813 calls)
     h_psi        :    807.35s CPU    201.32s WALL (    4936 calls)
     s_psi        :     27.53s CPU      3.48s WALL (    4936 calls)
     g_psi        :     11.63s CPU      1.41s WALL (    3829 calls)

     Called by h_psi:
     h_psi:calbec :     36.02s CPU      9.75s WALL (    4936 calls)
     vloc_psi     :    737.01s CPU    186.63s WALL (    4936 calls)
     add_vuspsi   :     30.32s CPU      4.21s WALL (    4936 calls)

     General routines
     calbec       :     50.46s CPU     13.44s WALL (    6535 calls)
     fft          :      0.27s CPU      0.16s WALL (     140 calls)
     ffts         :      0.14s CPU      0.06s WALL (      17 calls)
     fftw         :    734.19s CPU    188.34s WALL (  137432 calls)
     interpolate  :      0.04s CPU      0.04s WALL (       9 calls)

     Parallel routines

     PWSCF        :  21m38.28s CPU   5m11.02s WALL


   This run was terminated on:  21:29:13  17Oct2023            

=------------------------------------------------------------------------------=
   JOB DONE.
=------------------------------------------------------------------------------=
