==========================================
SLURM_CLUSTER_NAME = paramganga
SLURM_ARRAY_JOB_ID = 
SLURM_ARRAY_TASK_ID = 
SLURM_ARRAY_TASK_COUNT = 
SLURM_ARRAY_TASK_MAX = 
SLURM_ARRAY_TASK_MIN = 
SLURM_JOB_ACCOUNT = iitr
SLURM_JOB_ID = 174911
SLURM_JOB_NAME = 19280
SLURM_JOB_NODELIST = cn[161-163]
SLURM_JOB_USER = garima.iitr
SLURM_JOB_UID = 38339
SLURM_JOB_PARTITION = small
SLURM_TASK_PID = 41258
SLURM_SUBMIT_DIR = /home/garima.iitr/.cache/.es/compmat/gah3
SLURM_CPUS_ON_NODE = 48
SLURM_NTASKS = 144
SLURM_TASK_PID = 41258
==========================================
cn161
 
:: initializing oneAPI environment ...
   slurm_script: BASH_VERSION = 4.2.46(2)-release
   args: Using "$@" for setvars.sh arguments: 
:: advisor -- latest
:: ccl -- latest
:: clck -- latest
:: compiler -- latest
:: dal -- latest
:: debugger -- latest
:: dev-utilities -- latest
:: dnnl -- latest
:: dpcpp-ct -- latest
:: dpl -- latest
:: inspector -- latest
:: intelpython -- latest
:: ipp -- latest
:: ippcp -- latest
:: ipp -- latest
:: itac -- latest
:: mkl -- latest
:: mpi -- latest
:: tbb -- latest
:: vpl -- latest
:: vtune -- latest
:: oneAPI environment initialized ::
 
Job execution start: Fri Dec  1 12:22:16 IST 2023
Job submitted by garima.iitr
The job ID is:174911

     Program PWSCF v.7.1 starts on  1Dec2023 at 12:22:19 

     This program is part of the open-source Quantum ESPRESSO suite
     for quantum simulation of materials; please cite
         "P. Giannozzi et al., J. Phys.:Condens. Matter 21 395502 (2009);
         "P. Giannozzi et al., J. Phys.:Condens. Matter 29 465901 (2017);
         "P. Giannozzi et al., J. Chem. Phys. 152 154105 (2020);
          URL http://www.quantum-espresso.org", 
     in publications or presentations arising from this work. More details at
     http://www.quantum-espresso.org/quote

     Parallel version (MPI & OpenMP), running on     144 processor cores
     Number of MPI processes:               144
     Threads/MPI process:                     1

     MPI processes distributed on     3 nodes
     169784 MiB available memory on the printing compute node when the environment starts
 
     Reading input from gah3.in

     Current dimensions of program PWSCF are:
     Max number of different atomic species (ntypx) = 10
     Max number of k-points (npk) =  40000
     Max angular momentum in pseudopotentials (lmaxx) =  4
     file Ga.pbe-dn-kjpaw_psl.1.0.0.UPF: wavefunction(s)  4S renormalized

     IMPORTANT: XC functional enforced from input :
     Exchange-correlation= PBE
                           (   1   4   3   4   0   0   0)
     Any further DFT definition will be discarded
     Please, verify this is what you really want

     Message from routine setup:
     using ibrav=0 with symmetry is DISCOURAGED, use correct ibrav instead
 
     K-points division:     npool     =       8
     R & G space division:  proc/nbgrp/npool/nimage =      18
     Subspace diagonalization in iterative solution of the eigenvalue problem:
     a serial algorithm will be used

 
     Parallelization info
     --------------------
     sticks:   dense  smooth     PW     G-vecs:    dense   smooth      PW
     Min          48      38     11                 1226      870     141
     Max          49      39     12                 1230      874     145
     Sum         877     697    213                22113    15701    2591
 
     Using Slab Decomposition
 


     bravais-lattice index     =            0
     lattice parameter (alat)  =       5.4188  a.u.
     unit-cell volume          =     179.6737 (a.u.)^3
     number of atoms/cell      =            4
     number of atomic types    =            2
     number of electrons       =        16.00
     number of Kohn-Sham states=           12
     kinetic-energy cutoff     =      75.0000  Ry
     charge density cutoff     =     375.0000  Ry
     scf convergence threshold =      1.0E-08
     mixing beta               =       0.7000
     number of iterations used =            8  plain     mixing
     energy convergence thresh.=      1.0E-04
     force convergence thresh. =      1.0E-03
     press convergence thresh. =      5.0E-01
     Exchange-correlation= PBE
                           (   1   4   3   4   0   0   0)
     nstep                     =           50


     celldm(1)=   5.418809  celldm(2)=   0.000000  celldm(3)=   0.000000
     celldm(4)=   0.000000  celldm(5)=   0.000000  celldm(6)=   0.000000

     crystal axes: (cart. coord. in units of alat)
               a(1) = (   1.000000   0.000000   0.000000 )  
               a(2) = (   0.000000   1.000000   0.000000 )  
               a(3) = (   0.500000   0.500000   1.129206 )  

     reciprocal axes: (cart. coord. in units 2 pi/alat)
               b(1) = (  1.000000  0.000000 -0.442789 )  
               b(2) = (  0.000000  1.000000 -0.442789 )  
               b(3) = (  0.000000  0.000000  0.885578 )  


     PseudoPot. # 1 for H  read from file:
     /home/garima.iitr/.cache/.es/compmat/gah3/H.pbe-rrkjus_psl.1.0.0.UPF
     MD5 check sum: 3f4114867bd07edc7f1424d066fc1888
     Pseudo is Ultrasoft, Zval =  1.0
     Generated using &quot;atomic&quot; code by A. Dal Corso  v.6.3MaX
     Using radial grid of  929 points,  2 beta functions with: 
                l(1) =   0
                l(2) =   0
     Q(r) pseudized with 0 coefficients 


     PseudoPot. # 2 for Ga read from file:
     /home/garima.iitr/.cache/.es/compmat/gah3/Ga.pbe-dn-kjpaw_psl.1.0.0.UPF
     MD5 check sum: 50ce49cbf7e0a40ad8623bf41840a268
     Pseudo is Projector augmented-wave + core cor, Zval = 13.0
     Generated using &quot;atomic&quot; code by A. Dal Corso  v.6.3
     Shape of augmentation charge: PSQ
     Using radial grid of 1205 points,  6 beta functions with: 
                l(1) =   0
                l(2) =   0
                l(3) =   1
                l(4) =   1
                l(5) =   2
                l(6) =   2
     Q(r) pseudized with 0 coefficients 


     atomic species   valence    mass     pseudopotential
        H              1.00     1.00750     H ( 1.00)
        Ga            13.00    69.72300     Ga( 1.00)

     16 Sym. Ops., with inversion, found



   Cartesian axes

     site n.     atom                  positions (alat units)
         1           Ga  tau(   1) = (   0.0000000   0.0000000   0.0000000  )
         2           H   tau(   2) = (   1.0000000   0.5000000   0.5646028  )
         3           H   tau(   3) = (   0.5000000   1.0000000   0.5646028  )
         4           H   tau(   4) = (   0.5000000   0.5000000   0.0000000  )

     number of k points=    16  Marzari-Vanderbilt smearing, width (Ry)=  0.0050
                       cart. coord. in units 2pi/alat
        k(    1) = (   0.0000000   0.0000000   0.0000000), wk =   0.0370370
        k(    2) = (   0.0000000   0.0000000   0.2951928), wk =   0.0740741
        k(    3) = (   0.0000000   0.3333333  -0.1475964), wk =   0.2962963
        k(    4) = (   0.0000000   0.3333333  -0.4427891), wk =   0.1481481
        k(    5) = (   0.1666667   0.0000000  -0.0737982), wk =   0.0740741
        k(    6) = (   0.1666667   0.0000000   0.2213946), wk =   0.0740741
        k(    7) = (   0.1666667   0.0000000  -0.3689909), wk =   0.0740741
        k(    8) = (   0.1666667   0.3333333  -0.2213946), wk =   0.1481481
        k(    9) = (   0.1666667   0.3333333   0.0737982), wk =   0.1481481
        k(   10) = (   0.1666667   0.3333333  -0.5165873), wk =   0.1481481
        k(   11) = (   0.3333333   0.3333333  -0.2951928), wk =   0.2962963
        k(   12) = (   0.3333333   0.3333333   0.0000000), wk =   0.1481481
        k(   13) = (  -0.5000000   0.0000000   0.2213946), wk =   0.0370370
        k(   14) = (  -0.5000000   0.0000000   0.5165873), wk =   0.0740741
        k(   15) = (  -0.5000000   0.3333333   0.0737982), wk =   0.1481481
        k(   16) = (  -0.5000000   0.3333333  -0.2213946), wk =   0.0740741

     Dense  grid:    22113 G-vectors     FFT dimensions: (  36,  36,  45)

     Smooth grid:    15701 G-vectors     FFT dimensions: (  30,  30,  40)

     Estimated max dynamical RAM per process >       7.61 MB

     Estimated total dynamical RAM >       1.03 GB

     Initial potential from superposition of free atoms

     starting charge      15.9970, renormalised to      16.0000
     Starting wfcs are   12 randomized atomic wfcs
     Checking if some PAW data can be deallocated... 

     total cpu time spent up to now is        0.6 secs

     Self-consistent Calculation

     iteration #  1     ecut=    75.00 Ry     beta= 0.70
     Davidson diagonalization with overlap
     ethr =  1.00E-02,  avg # of iterations =  3.9

     Threshold (ethr) on eigenvalues was too large:
     Diagonalizing with lowered threshold

     Davidson diagonalization with overlap
     ethr =  5.57E-04,  avg # of iterations =  5.4

     total cpu time spent up to now is        0.8 secs

     total energy              =    -281.18788043 Ry
     estimated scf accuracy    <       0.08534431 Ry

     iteration #  2     ecut=    75.00 Ry     beta= 0.70
     Davidson diagonalization with overlap
     ethr =  5.33E-04,  avg # of iterations =  2.8

     total cpu time spent up to now is        0.8 secs

     total energy              =    -281.20910485 Ry
     estimated scf accuracy    <       0.00676258 Ry

     iteration #  3     ecut=    75.00 Ry     beta= 0.70
     Davidson diagonalization with overlap
     ethr =  4.23E-05,  avg # of iterations =  6.9

     total cpu time spent up to now is        0.9 secs

     total energy              =    -281.21409135 Ry
     estimated scf accuracy    <       0.00215702 Ry

     iteration #  4     ecut=    75.00 Ry     beta= 0.70
     Davidson diagonalization with overlap
     ethr =  1.35E-05,  avg # of iterations =  3.2

     total cpu time spent up to now is        0.9 secs

     total energy              =    -281.21430816 Ry
     estimated scf accuracy    <       0.00025487 Ry

     iteration #  5     ecut=    75.00 Ry     beta= 0.70
     Davidson diagonalization with overlap
     ethr =  1.59E-06,  avg # of iterations =  5.9

     total cpu time spent up to now is        1.0 secs

     total energy              =    -281.21442087 Ry
     estimated scf accuracy    <       0.00001703 Ry

     iteration #  6     ecut=    75.00 Ry     beta= 0.70
     Davidson diagonalization with overlap
     ethr =  1.06E-07,  avg # of iterations =  5.6

     total cpu time spent up to now is        1.0 secs

     total energy              =    -281.21443793 Ry
     estimated scf accuracy    <       0.00002594 Ry

     iteration #  7     ecut=    75.00 Ry     beta= 0.70
     Davidson diagonalization with overlap
     ethr =  1.06E-07,  avg # of iterations =  1.1

     total cpu time spent up to now is        1.1 secs

     total energy              =    -281.21443873 Ry
     estimated scf accuracy    <       0.00000114 Ry

     iteration #  8     ecut=    75.00 Ry     beta= 0.70
     Davidson diagonalization with overlap
     ethr =  7.13E-09,  avg # of iterations =  6.6

     total cpu time spent up to now is        1.1 secs

     total energy              =    -281.21444037 Ry
     estimated scf accuracy    <       0.00000081 Ry

     iteration #  9     ecut=    75.00 Ry     beta= 0.70
     Davidson diagonalization with overlap
     ethr =  5.04E-09,  avg # of iterations =  1.1

     total cpu time spent up to now is        1.2 secs

     total energy              =    -281.21444019 Ry
     estimated scf accuracy    <       0.00000058 Ry

     iteration # 10     ecut=    75.00 Ry     beta= 0.70
     Davidson diagonalization with overlap
     ethr =  3.64E-09,  avg # of iterations =  1.2

     total cpu time spent up to now is        1.2 secs

     total energy              =    -281.21444019 Ry
     estimated scf accuracy    <       0.00000008 Ry

     iteration # 11     ecut=    75.00 Ry     beta= 0.70
     Davidson diagonalization with overlap
     ethr =  5.09E-10,  avg # of iterations =  5.8

     total cpu time spent up to now is        1.3 secs

     total energy              =    -281.21444028 Ry
     estimated scf accuracy    <       0.00000012 Ry

     iteration # 12     ecut=    75.00 Ry     beta= 0.70
     Davidson diagonalization with overlap
     ethr =  5.09E-10,  avg # of iterations =  1.0

     total cpu time spent up to now is        1.3 secs

     total energy              =    -281.21444026 Ry
     estimated scf accuracy    <       0.00000005 Ry

     iteration # 13     ecut=    75.00 Ry     beta= 0.70
     Davidson diagonalization with overlap
     ethr =  3.13E-10,  avg # of iterations =  2.9

     total cpu time spent up to now is        1.4 secs

     End of self-consistent calculation

          k = 0.0000 0.0000 0.0000 (  1985 PWs)   bands (ev):

    -7.4347  -7.3349  -7.1220  -7.1220  -7.0856  -5.1335   7.3880  10.4261
    10.5915  15.3699  16.1603  16.1603

          k = 0.0000 0.0000 0.2952 (  1993 PWs)   bands (ev):

    -7.4537  -7.3496  -7.1032  -7.1032  -7.0838  -3.5511   1.2815  10.0926
    12.9436  14.4355  14.4355  20.3219

          k = 0.0000 0.3333-0.1476 (  1965 PWs)   bands (ev):

    -7.3575  -7.2582  -7.1679  -7.1391  -7.1029  -2.7295   4.3631   6.0966
     9.2385  14.5798  17.4198  18.2914

          k = 0.0000 0.3333-0.4428 (  1966 PWs)   bands (ev):

    -7.3667  -7.2476  -7.1669  -7.1547  -7.0938  -0.1241   1.0138   3.0078
    11.5047  16.1823  18.6424  18.8224

          k = 0.1667 0.0000-0.0738 (  1976 PWs)   bands (ev):

    -7.3982  -7.2818  -7.1611  -7.1165  -7.1123  -4.5391   6.6194   8.9704
    10.9802  12.6241  16.4590  17.2714

          k = 0.1667 0.0000 0.2214 (  1980 PWs)   bands (ev):

    -7.4082  -7.2884  -7.1558  -7.1137  -7.1049  -3.7432   3.3338   7.8956
    11.5233  15.4073  16.1473  18.9423

          k = 0.1667 0.0000-0.3690 (  1987 PWs)   bands (ev):

    -7.4179  -7.2938  -7.1517  -7.1116  -7.0967  -2.2105   0.3639   7.2674
    11.6101  14.7093  17.8390  21.3008

          k = 0.1667 0.3333-0.2214 (  1976 PWs)   bands (ev):

    -7.2821  -7.2521  -7.2318  -7.1420  -7.1273  -1.7247   4.1698   5.1491
     9.2758  12.7831  16.0068  17.7186

          k = 0.1667 0.3333 0.0738 (  1964 PWs)   bands (ev):

    -7.2752  -7.2426  -7.2332  -7.1472  -7.1346  -2.5103   5.5480   6.9918
     9.3592  12.2067  14.1740  16.1017

          k = 0.1667 0.3333-0.5166 (  1976 PWs)   bands (ev):

    -7.2886  -7.2511  -7.2336  -7.1342  -7.1297  -0.2345   2.2930   3.5460
     9.1238  15.1203  17.2909  18.8710

          k = 0.3333 0.3333-0.2952 (  1982 PWs)   bands (ev):

    -7.3573  -7.2549  -7.1975  -7.1219  -7.1119   0.4668   4.4613   4.8568
     6.3777  13.0156  13.6757  15.6654

          k = 0.3333 0.3333 0.0000 (  1960 PWs)   bands (ev):

    -7.3568  -7.2579  -7.1864  -7.1330  -7.1055  -1.0904   6.7790   6.9033
     8.9023  10.0322  11.3418  14.1546

          k =-0.5000 0.0000 0.2214 (  1954 PWs)   bands (ev):

    -7.3419  -7.3010  -7.1950  -7.0966  -7.0724  -0.0721   0.6897   5.8834
     8.4834  15.3653  18.3992  19.6001

          k =-0.5000 0.0000 0.5166 (  1969 PWs)   bands (ev):

    -7.3416  -7.2912  -7.1947  -7.0969  -7.0833  -0.5255   1.8313   4.1400
    10.2085  15.3490  18.3164  18.8102

          k =-0.5000 0.3333 0.0738 (  1961 PWs)   bands (ev):

    -7.4121  -7.2860  -7.1921  -7.1168  -7.0349   1.4529   3.7554   5.7429
     7.5141  10.5259  12.5603  14.0910

          k =-0.5000 0.3333-0.2214 (  1964 PWs)   bands (ev):

    -7.4107  -7.2658  -7.2160  -7.1168  -7.0336   2.0493   2.4694   6.6494
     8.2081  10.2591  11.1187  14.7623

     the Fermi energy is     7.3266 ev

!    total energy              =    -281.21444027 Ry
     estimated scf accuracy    <          5.2E-10 Ry
     smearing contrib. (-TS)   =       0.00001447 Ry
     internal energy E=F+TS    =    -281.21445474 Ry

     The total energy is F=E-TS. E is the sum of the following terms:
     one-electron contribution =     -98.85684606 Ry
     hartree contribution      =      64.56334093 Ry
     xc contribution           =     -40.29299777 Ry
     ewald contribution        =     -95.13248060 Ry
     one-center paw contrib.   =    -111.49547124 Ry

     convergence has been achieved in  13 iterations

     Forces acting on atoms (cartesian axes, Ry/au):

     atom    1 type  2   force =     0.00000000    0.00000000    0.00000000
     atom    2 type  1   force =     0.00000000    0.00000000   -0.00000000
     atom    3 type  1   force =     0.00000000    0.00000000   -0.00000000
     atom    4 type  1   force =     0.00000000    0.00000000    0.00000000

     Total force =     0.000000     Total SCF correction =     0.000000


     Computing stress (Cartesian axis) and pressure

          total   stress  (Ry/bohr**3)                   (kbar)     P=       -1.86
  -0.00005043   0.00000000   0.00000000           -7.42        0.00        0.00
   0.00000000  -0.00005043  -0.00000000            0.00       -7.42       -0.00
   0.00000000   0.00000000   0.00006295            0.00        0.00        9.26


     BFGS Geometry Optimization
     Energy error            =      0.0E+00 Ry
     Gradient error          =      1.0E-30 Ry/Bohr
     Cell gradient error     =      9.3E+00 kbar

     number of scf cycles    =   1
     number of bfgs steps    =   0

     enthalpy           new  =    -281.2144402725 Ry

     new trust radius        =       0.0042187110 bohr
     new conv_thr            =       0.0000000100 Ry

     new unit-cell volume =    179.50295 a.u.^3 (    26.59959 Ang^3 )
     density =      4.54130 g/cm^3

CELL_PARAMETERS (alat=  5.41880856)
   0.998739232  -0.000000000   0.000000000
   0.000000000   0.998739232   0.000000000
   0.499369616   0.499369616   1.130982630

ATOMIC_POSITIONS (crystal)
Ga            0.0000000000        0.0000000000        0.0000000000
H             0.7500000000        0.2500000000        0.5000000000
H             0.2500000000        0.7500000000        0.5000000000
H             0.5000000000        0.5000000000        0.0000000000



     Writing config-only to output data dir ./gah3.save/
     NEW-OLD atomic charge density approx. for the potential
     extrapolated charge   15.98478, renormalised to   16.00000

     total cpu time spent up to now is        1.6 secs

     Self-consistent Calculation

     iteration #  1     ecut=    75.00 Ry     beta= 0.70
     Davidson diagonalization with overlap
     ethr =  1.00E-06,  avg # of iterations =  5.0

     total cpu time spent up to now is        1.7 secs

     total energy              =    -281.21429766 Ry
     estimated scf accuracy    <       0.00021630 Ry

     iteration #  2     ecut=    75.00 Ry     beta= 0.70
     Davidson diagonalization with overlap
     ethr =  1.35E-06,  avg # of iterations =  5.7

     total cpu time spent up to now is        1.7 secs

     total energy              =    -281.21448345 Ry
     estimated scf accuracy    <       0.00042055 Ry

     iteration #  3     ecut=    75.00 Ry     beta= 0.70
     Davidson diagonalization with overlap
     ethr =  1.35E-06,  avg # of iterations =  1.0

     total cpu time spent up to now is        1.8 secs

     total energy              =    -281.21448908 Ry
     estimated scf accuracy    <       0.00012849 Ry

     iteration #  4     ecut=    75.00 Ry     beta= 0.70
     Davidson diagonalization with overlap
     ethr =  8.03E-07,  avg # of iterations =  1.4

     total cpu time spent up to now is        1.8 secs

     total energy              =    -281.21447512 Ry
     estimated scf accuracy    <       0.00006248 Ry

     iteration #  5     ecut=    75.00 Ry     beta= 0.70
     Davidson diagonalization with overlap
     ethr =  3.91E-07,  avg # of iterations =  1.9

     total cpu time spent up to now is        1.9 secs

     total energy              =    -281.21447880 Ry
     estimated scf accuracy    <       0.00000911 Ry

     iteration #  6     ecut=    75.00 Ry     beta= 0.70
     Davidson diagonalization with overlap
     ethr =  5.69E-08,  avg # of iterations =  5.3

     total cpu time spent up to now is        1.9 secs

     total energy              =    -281.21449137 Ry
     estimated scf accuracy    <       0.00000839 Ry

     iteration #  7     ecut=    75.00 Ry     beta= 0.70
     Davidson diagonalization with overlap
     ethr =  5.24E-08,  avg # of iterations =  1.0

     total cpu time spent up to now is        2.0 secs

     total energy              =    -281.21449147 Ry
     estimated scf accuracy    <       0.00000873 Ry

     iteration #  8     ecut=    75.00 Ry     beta= 0.70
     Davidson diagonalization with overlap
     ethr =  5.24E-08,  avg # of iterations =  1.0

     total cpu time spent up to now is        2.0 secs

     total energy              =    -281.21449165 Ry
     estimated scf accuracy    <       0.00000901 Ry

     iteration #  9     ecut=    75.00 Ry     beta= 0.70
     Davidson diagonalization with overlap
     ethr =  5.24E-08,  avg # of iterations =  1.1

     total cpu time spent up to now is        2.1 secs

     total energy              =    -281.21449191 Ry
     estimated scf accuracy    <       0.00001014 Ry

     iteration # 10     ecut=    75.00 Ry     beta= 0.70
     Davidson diagonalization with overlap
     ethr =  5.24E-08,  avg # of iterations =  1.0

     total cpu time spent up to now is        2.1 secs

     total energy              =    -281.21449293 Ry
     estimated scf accuracy    <       0.00001175 Ry

     iteration # 11     ecut=    75.00 Ry     beta= 0.70
     Davidson diagonalization with overlap
     ethr =  5.24E-08,  avg # of iterations =  1.0

     total cpu time spent up to now is        2.1 secs

     total energy              =    -281.21449267 Ry
     estimated scf accuracy    <       0.00001779 Ry

     iteration # 12     ecut=    75.00 Ry     beta= 0.70
     Davidson diagonalization with overlap
     ethr =  5.24E-08,  avg # of iterations =  1.0

     total cpu time spent up to now is        2.2 secs

     total energy              =    -281.21449298 Ry
     estimated scf accuracy    <       0.00001636 Ry

     iteration # 13     ecut=    75.00 Ry     beta= 0.70
     Davidson diagonalization with overlap
     ethr =  5.24E-08,  avg # of iterations =  1.0

     total cpu time spent up to now is        2.2 secs

     total energy              =    -281.21449191 Ry
     estimated scf accuracy    <       0.00001895 Ry

     iteration # 14     ecut=    75.00 Ry     beta= 0.70
     Davidson diagonalization with overlap
     ethr =  5.24E-08,  avg # of iterations =  1.0

     total cpu time spent up to now is        2.3 secs

     total energy              =    -281.21449570 Ry
     estimated scf accuracy    <       0.00001433 Ry

     iteration # 15     ecut=    75.00 Ry     beta= 0.70
     Davidson diagonalization with overlap
     ethr =  5.24E-08,  avg # of iterations =  1.0

     total cpu time spent up to now is        2.3 secs

     total energy              =    -281.21448593 Ry
     estimated scf accuracy    <       0.00003761 Ry

     iteration # 16     ecut=    75.00 Ry     beta= 0.70
     Davidson diagonalization with overlap
     ethr =  5.24E-08,  avg # of iterations =  4.0

     total cpu time spent up to now is        2.4 secs

     total energy              =    -281.21448933 Ry
     estimated scf accuracy    <       0.00000077 Ry

     iteration # 17     ecut=    75.00 Ry     beta= 0.70
     Davidson diagonalization with overlap
     ethr =  4.79E-09,  avg # of iterations =  4.8

     total cpu time spent up to now is        2.4 secs

     total energy              =    -281.21448957 Ry
     estimated scf accuracy    <       0.00000165 Ry

     iteration # 18     ecut=    75.00 Ry     beta= 0.70
     Davidson diagonalization with overlap
     ethr =  4.79E-09,  avg # of iterations =  1.0

     total cpu time spent up to now is        2.5 secs

     total energy              =    -281.21448943 Ry
     estimated scf accuracy    <       0.00000075 Ry

     iteration # 19     ecut=    75.00 Ry     beta= 0.70
     Davidson diagonalization with overlap
     ethr =  4.71E-09,  avg # of iterations =  2.0

     total cpu time spent up to now is        2.5 secs

     total energy              =    -281.21448951 Ry
     estimated scf accuracy    <       0.00000004 Ry

     iteration # 20     ecut=    75.00 Ry     beta= 0.70
     Davidson diagonalization with overlap
     ethr =  2.78E-10,  avg # of iterations =  5.3

     total cpu time spent up to now is        2.6 secs

     End of self-consistent calculation

          k = 0.0000 0.0000 0.0000 (  1985 PWs)   bands (ev):

    -7.4303  -7.3298  -7.1141  -7.1141  -7.0779  -5.1317   7.3563  10.3945
    10.6287  15.4028  16.1903  16.1903

          k =-0.0000-0.0000 0.2947 (  1993 PWs)   bands (ev):

    -7.4490  -7.3445  -7.0955  -7.0955  -7.0762  -3.5548   1.2669  10.1339
    12.9854  14.4776  14.4776  20.2747

          k = 0.0000 0.3338-0.1474 (  1965 PWs)   bands (ev):

    -7.3524  -7.2512  -7.1610  -7.1319  -7.0950  -2.7246   4.3782   6.0850
     9.2427  14.5851  17.4646  18.2947

          k = 0.0000 0.3338-0.4421 (  1966 PWs)   bands (ev):

    -7.3614  -7.2409  -7.1600  -7.1473  -7.0861  -0.1355   1.0180   3.0315
    11.5283  16.2330  18.6506  18.8167

          k = 0.1669 0.0000-0.0737 (  1976 PWs)   bands (ev):

    -7.3935  -7.2759  -7.1535  -7.1087  -7.1048  -4.5366   6.5938   8.9982
    10.9910  12.6046  16.4936  17.3004

          k = 0.1669-0.0000 0.2210 (  1980 PWs)   bands (ev):

    -7.4033  -7.2825  -7.1484  -7.1062  -7.0972  -3.7434   3.3154   7.9276
    11.5538  15.4489  16.1479  18.9268

          k = 0.1669 0.0000-0.3684 (  1987 PWs)   bands (ev):

    -7.4129  -7.2878  -7.1444  -7.1042  -7.0891  -2.2175   0.3564   7.3016
    11.6491  14.7545  17.8763  21.3109

          k = 0.1669 0.3338-0.2210 (  1976 PWs)   bands (ev):

    -7.2762  -7.2450  -7.2256  -7.1345  -7.1199  -1.7201   4.1871   5.1419
     9.2984  12.7942  16.0426  17.7353

          k = 0.1669 0.3338 0.0737 (  1964 PWs)   bands (ev):

    -7.2694  -7.2355  -7.2270  -7.1397  -7.1272  -2.5028   5.5608   6.9974
     9.3517  12.2231  14.1809  16.1256

          k = 0.1669 0.3338-0.5158 (  1976 PWs)   bands (ev):

    -7.2826  -7.2441  -7.2274  -7.1267  -7.1223  -0.2371   2.2910   3.5704
     9.1568  15.1194  17.3277  18.8880

          k = 0.3338 0.3338-0.2947 (  1982 PWs)   bands (ev):

    -7.3524  -7.2478  -7.1905  -7.1143  -7.1045   0.4729   4.4869   4.8553
     6.4036  13.0504  13.6681  15.6788

          k = 0.3338 0.3338 0.0000 (  1960 PWs)   bands (ev):

    -7.3519  -7.2505  -7.1797  -7.1253  -7.0982  -1.0781   6.7996   6.9126
     8.9094  10.0553  11.3609  14.1501

          k =-0.5006-0.0000 0.2210 (  1954 PWs)   bands (ev):

    -7.3365  -7.2943  -7.1883  -7.0887  -7.0646  -0.0662   0.7041   5.8769
     8.4773  15.3956  18.4542  19.6453

          k =-0.5006-0.0000 0.5158 (  1969 PWs)   bands (ev):

    -7.3362  -7.2846  -7.1880  -7.0890  -7.0754  -0.5142   1.8363   4.1427
    10.2008  15.3528  18.3722  18.8202

          k =-0.5006 0.3338 0.0737 (  1961 PWs)   bands (ev):

    -7.4077  -7.2789  -7.1853  -7.1092  -7.0268   1.4709   3.7657   5.7516
     7.5433  10.5478  12.5735  14.0833

          k =-0.5006 0.3338-0.2210 (  1964 PWs)   bands (ev):

    -7.4064  -7.2589  -7.2089  -7.1091  -7.0255   2.0625   2.4879   6.6616
     8.2344  10.2699  11.1212  14.7730

     the Fermi energy is     7.3446 ev

!    total energy              =    -281.21448956 Ry
     estimated scf accuracy    <          6.9E-09 Ry
     smearing contrib. (-TS)   =      -0.00004105 Ry
     internal energy E=F+TS    =    -281.21444851 Ry

     The total energy is F=E-TS. E is the sum of the following terms:
     one-electron contribution =     -98.85472502 Ry
     hartree contribution      =      64.57247026 Ry
     xc contribution           =     -40.29536773 Ry
     ewald contribution        =     -95.13787957 Ry
     one-center paw contrib.   =    -111.49894644 Ry

     convergence has been achieved in  20 iterations

     Forces acting on atoms (cartesian axes, Ry/au):

     atom    1 type  2   force =     0.00000000    0.00000000    0.00000000
     atom    2 type  1   force =    -0.00000000   -0.00000000    0.00000000
     atom    3 type  1   force =     0.00000000    0.00000000   -0.00000000
     atom    4 type  1   force =     0.00000000    0.00000000   -0.00000000

     Total force =     0.000000     Total SCF correction =     0.000000


     Computing stress (Cartesian axis) and pressure

          total   stress  (Ry/bohr**3)                   (kbar)     P=       -0.58
  -0.00006852  -0.00000000   0.00000000          -10.08       -0.00        0.00
  -0.00000000  -0.00006852   0.00000000           -0.00      -10.08        0.00
   0.00000000   0.00000000   0.00012517            0.00        0.00       18.41

     Energy error            =      4.9E-05 Ry
     Gradient error          =      1.5E-29 Ry/Bohr
     Cell gradient error     =      1.8E+01 kbar

     number of scf cycles    =   2
     number of bfgs steps    =   1

     enthalpy           old  =    -281.2144402725 Ry
     enthalpy           new  =    -281.2144895583 Ry

     CASE: enthalpy          _new < enthalpy          _old


     WARNING: bfgs curvature condition failed, Theta= 0.490
     new trust radius        =       0.0011473316 bohr
     new conv_thr            =            1.0E-10 Ry

     new unit-cell volume =    179.39825 a.u.^3 (    26.58408 Ang^3 )
     density =      4.54395 g/cm^3

CELL_PARAMETERS (alat=  5.41880856)
   0.998311595   0.000000000  -0.000000000
  -0.000000000   0.998311595  -0.000000000
   0.499155797   0.499155797   1.131291552

ATOMIC_POSITIONS (crystal)
Ga            0.0000000000        0.0000000000        0.0000000000
H             0.7500000000        0.2500000000        0.5000000000
H             0.2500000000        0.7500000000        0.5000000000
H             0.5000000000        0.5000000000       -0.0000000000



     Writing config-only to output data dir ./gah3.save/
     NEW-OLD atomic charge density approx. for the potential
     extrapolated charge   15.99066, renormalised to   16.00000

     total cpu time spent up to now is        2.9 secs

     Self-consistent Calculation

     iteration #  1     ecut=    75.00 Ry     beta= 0.70
     Davidson diagonalization with overlap
     ethr =  1.00E-06,  avg # of iterations =  2.7

     total cpu time spent up to now is        3.1 secs

     total energy              =    -281.21446425 Ry
     estimated scf accuracy    <       0.00003621 Ry

     iteration #  2     ecut=    75.00 Ry     beta= 0.70
     Davidson diagonalization with overlap
     ethr =  2.26E-07,  avg # of iterations =  5.2

     total cpu time spent up to now is        3.2 secs

     total energy              =    -281.21450681 Ry
     estimated scf accuracy    <       0.00007990 Ry

     iteration #  3     ecut=    75.00 Ry     beta= 0.70
     Davidson diagonalization with overlap
     ethr =  2.26E-07,  avg # of iterations =  1.0

     total cpu time spent up to now is        3.4 secs

     total energy              =    -281.21450892 Ry
     estimated scf accuracy    <       0.00002397 Ry

     iteration #  4     ecut=    75.00 Ry     beta= 0.70
     Davidson diagonalization with overlap
     ethr =  1.50E-07,  avg # of iterations =  1.2

     total cpu time spent up to now is        3.5 secs

     total energy              =    -281.21450338 Ry
     estimated scf accuracy    <       0.00001591 Ry

     iteration #  5     ecut=    75.00 Ry     beta= 0.70
     Davidson diagonalization with overlap
     ethr =  9.95E-08,  avg # of iterations =  2.3

     total cpu time spent up to now is        3.6 secs

     total energy              =    -281.21450555 Ry
     estimated scf accuracy    <       0.00000109 Ry

     iteration #  6     ecut=    75.00 Ry     beta= 0.70
     Davidson diagonalization with overlap
     ethr =  6.79E-09,  avg # of iterations =  6.2

     total cpu time spent up to now is        3.7 secs

     total energy              =    -281.21450774 Ry
     estimated scf accuracy    <       0.00000127 Ry

     iteration #  7     ecut=    75.00 Ry     beta= 0.70
     Davidson diagonalization with overlap
     ethr =  6.79E-09,  avg # of iterations =  1.1

     total cpu time spent up to now is        3.8 secs

     total energy              =    -281.21450732 Ry
     estimated scf accuracy    <       0.00000122 Ry

     iteration #  8     ecut=    75.00 Ry     beta= 0.70
     Davidson diagonalization with overlap
     ethr =  6.79E-09,  avg # of iterations =  1.2

     total cpu time spent up to now is        3.9 secs

     total energy              =    -281.21450745 Ry
     estimated scf accuracy    <       0.00000008 Ry

     iteration #  9     ecut=    75.00 Ry     beta= 0.70
     Davidson diagonalization with overlap
     ethr =  5.31E-10,  avg # of iterations =  4.9

     total cpu time spent up to now is        4.1 secs

     total energy              =    -281.21450751 Ry
     estimated scf accuracy    <       0.00000007 Ry

     iteration # 10     ecut=    75.00 Ry     beta= 0.70
     Davidson diagonalization with overlap
     ethr =  4.15E-10,  avg # of iterations =  1.2

     total cpu time spent up to now is        4.2 secs

     total energy              =    -281.21450751 Ry
     estimated scf accuracy    <       0.00000010 Ry

     iteration # 11     ecut=    75.00 Ry     beta= 0.70
     Davidson diagonalization with overlap
     ethr =  4.15E-10,  avg # of iterations =  1.0

     total cpu time spent up to now is        4.3 secs

     total energy              =    -281.21450751 Ry
     estimated scf accuracy    <       0.00000009 Ry

     iteration # 12     ecut=    75.00 Ry     beta= 0.70
     Davidson diagonalization with overlap
     ethr =  4.15E-10,  avg # of iterations =  1.0

     total cpu time spent up to now is        4.4 secs

     total energy              =    -281.21450750 Ry
     estimated scf accuracy    <       0.00000007 Ry

     iteration # 13     ecut=    75.00 Ry     beta= 0.70
     Davidson diagonalization with overlap
     ethr =  4.15E-10,  avg # of iterations =  1.0

     total cpu time spent up to now is        4.5 secs

     total energy              =    -281.21450749 Ry
     estimated scf accuracy    <       0.00000002 Ry

     iteration # 14     ecut=    75.00 Ry     beta= 0.70
     Davidson diagonalization with overlap
     ethr =  1.49E-10,  avg # of iterations =  3.6

     total cpu time spent up to now is        4.6 secs

     total energy              =    -281.21450750 Ry
     estimated scf accuracy    <          1.7E-09 Ry

     iteration # 15     ecut=    75.00 Ry     beta= 0.70
     Davidson diagonalization with overlap
     ethr =  1.06E-11,  avg # of iterations =  6.7

     total cpu time spent up to now is        4.7 secs

     total energy              =    -281.21450750 Ry
     estimated scf accuracy    <          4.1E-09 Ry

     iteration # 16     ecut=    75.00 Ry     beta= 0.70
     Davidson diagonalization with overlap
     ethr =  1.06E-11,  avg # of iterations =  1.6

     total cpu time spent up to now is        4.8 secs

     total energy              =    -281.21450750 Ry
     estimated scf accuracy    <          6.1E-09 Ry

     iteration # 17     ecut=    75.00 Ry     beta= 0.70
     Davidson diagonalization with overlap
     ethr =  1.06E-11,  avg # of iterations =  1.0

     total cpu time spent up to now is        5.0 secs

     total energy              =    -281.21450750 Ry
     estimated scf accuracy    <          3.8E-09 Ry

     iteration # 18     ecut=    75.00 Ry     beta= 0.70
     Davidson diagonalization with overlap
     ethr =  1.06E-11,  avg # of iterations =  2.4

     total cpu time spent up to now is        5.1 secs

     End of self-consistent calculation

          k = 0.0000 0.0000 0.0000 (  1985 PWs)   bands (ev):

    -7.4243  -7.3235  -7.1068  -7.1068  -7.0707  -5.1300   7.3532  10.3914
    10.6430  15.4199  16.2046  16.2046

          k = 0.0000 0.0000 0.2946 (  1993 PWs)   bands (ev):

    -7.4430  -7.3382  -7.0883  -7.0883  -7.0689  -3.5540   1.2660  10.1492
    13.0031  14.4939  14.4939  20.2713

          k =-0.0000 0.3339-0.1473 (  1965 PWs)   bands (ev):

    -7.3461  -7.2443  -7.1540  -7.1249  -7.0877  -2.7215   4.3857   6.0862
     9.2491  14.5926  17.4828  18.3023

          k =-0.0000 0.3339-0.4420 (  1966 PWs)   bands (ev):

    -7.3551  -7.2341  -7.1530  -7.1402  -7.0788  -0.1354   1.0213   3.0408
    11.5404  16.2519  18.6597  18.8225

          k = 0.1669-0.0000-0.0737 (  1976 PWs)   bands (ev):

    -7.3874  -7.2694  -7.1464  -7.1014  -7.0976  -4.5347   6.5919   9.0097
    10.9994  12.6056  16.5089  17.3151

          k = 0.1669 0.0000 0.2210 (  1980 PWs)   bands (ev):

    -7.3972  -7.2759  -7.1414  -7.0990  -7.0900  -3.7418   3.3142   7.9401
    11.5677  15.4654  16.1547  18.9307

          k = 0.1669-0.0000-0.3683 (  1987 PWs)   bands (ev):

    -7.4067  -7.2813  -7.1374  -7.0971  -7.0819  -2.2170   0.3569   7.3145
    11.6651  14.7716  17.8930  21.3210

          k = 0.1669 0.3339-0.2210 (  1976 PWs)   bands (ev):

    -7.2697  -7.2382  -7.2189  -7.1274  -7.1128  -1.7168   4.1949   5.1439
     9.3095  12.8023  16.0582  17.7463

          k = 0.1669 0.3339 0.0737 (  1964 PWs)   bands (ev):

    -7.2628  -7.2286  -7.2203  -7.1326  -7.1201  -2.4990   5.5681   7.0030
     9.3552  12.2326  14.1891  16.1370

          k = 0.1669 0.3339-0.5156 (  1976 PWs)   bands (ev):

    -7.2761  -7.2373  -7.2207  -7.1196  -7.1152  -0.2351   2.2933   3.5799
     9.1704  15.1254  17.3440  18.8998

          k = 0.3339 0.3339-0.2946 (  1982 PWs)   bands (ev):

    -7.3462  -7.2409  -7.1836  -7.1071  -7.0975   0.4771   4.4965   4.8588
     6.4151  13.0648  13.6720  15.6884

          k = 0.3339 0.3339 0.0000 (  1960 PWs)   bands (ev):

    -7.3457  -7.2436  -7.1728  -7.1182  -7.0912  -1.0729   6.8088   6.9201
     8.9156  10.0673  11.3703  14.1546

          k =-0.5008 0.0000 0.2210 (  1954 PWs)   bands (ev):

    -7.3301  -7.2876  -7.1815  -7.0815  -7.0573  -0.0624   0.7107   5.8792
     8.4809  15.4096  18.4754  19.6633

          k =-0.5008 0.0000 0.5156 (  1969 PWs)   bands (ev):

    -7.3298  -7.2779  -7.1812  -7.0817  -7.0681  -0.5091   1.8408   4.1467
    10.2045  15.3600  18.3935  18.8300

          k =-0.5008 0.3339 0.0737 (  1961 PWs)   bands (ev):

    -7.4017  -7.2721  -7.1784  -7.1019  -7.0195   1.4782   3.7719   5.7579
     7.5555  10.5585  12.5820  14.0871

          k =-0.5008 0.3339-0.2210 (  1964 PWs)   bands (ev):

    -7.4004  -7.2522  -7.2020  -7.1019  -7.0182   2.0687   2.4957   6.6692
     8.2465  10.2771  11.1267  14.7818

     the Fermi energy is     7.3522 ev

!    total energy              =    -281.21450750 Ry
     estimated scf accuracy    <          9.2E-11 Ry
     smearing contrib. (-TS)   =      -0.00005364 Ry
     internal energy E=F+TS    =    -281.21445386 Ry

     The total energy is F=E-TS. E is the sum of the following terms:
     one-electron contribution =     -98.83540803 Ry
     hartree contribution      =      64.56803770 Ry
     xc contribution           =     -40.29643885 Ry
     ewald contribution        =     -95.15020502 Ry
     one-center paw contrib.   =    -111.50043966 Ry

     convergence has been achieved in  18 iterations

     Forces acting on atoms (cartesian axes, Ry/au):

     atom    1 type  2   force =     0.00000000    0.00000000    0.00000000
     atom    2 type  1   force =     0.00000000    0.00000000    0.00000000
     atom    3 type  1   force =     0.00000000    0.00000000    0.00000000
     atom    4 type  1   force =    -0.00000000   -0.00000000   -0.00000000

     Total force =     0.000000     Total SCF correction =     0.000000


     Computing stress (Cartesian axis) and pressure

          total   stress  (Ry/bohr**3)                   (kbar)     P=        0.29
  -0.00007594   0.00000000  -0.00000000          -11.17        0.00       -0.00
   0.00000000  -0.00007594   0.00000000            0.00      -11.17        0.00
  -0.00000000   0.00000000   0.00015782           -0.00        0.00       23.22

     Energy error            =      1.8E-05 Ry
     Gradient error          =      4.4E-32 Ry/Bohr
     Cell gradient error     =      2.3E+01 kbar

     number of scf cycles    =   3
     number of bfgs steps    =   2

     enthalpy           old  =    -281.2144895583 Ry
     enthalpy           new  =    -281.2145074991 Ry

     CASE: enthalpy          _new < enthalpy          _old


     WARNING: bfgs curvature condition failed, Theta= 0.687
     uphill step: resetting bfgs history

     new trust radius        =       0.0012622371 bohr
     new conv_thr            =            1.0E-10 Ry

     new unit-cell volume =    179.40141 a.u.^3 (    26.58455 Ang^3 )
     density =      4.54387 g/cm^3

CELL_PARAMETERS (alat=  5.41880856)
   0.998085263   0.000000000  -0.000000000
  -0.000000000   0.998085263   0.000000000
   0.499042632   0.499042632   1.131824612

ATOMIC_POSITIONS (crystal)
Ga            0.0000000000        0.0000000000        0.0000000000
H             0.7500000000        0.2500000000        0.5000000000
H             0.2500000000        0.7500000000        0.5000000000
H             0.5000000000        0.5000000000       -0.0000000000



     Writing config-only to output data dir ./gah3.save/
     NEW-OLD atomic charge density approx. for the potential
     extrapolated charge   16.00028, renormalised to   16.00000

     total cpu time spent up to now is        5.5 secs

     Self-consistent Calculation

     iteration #  1     ecut=    75.00 Ry     beta= 0.70
     Davidson diagonalization with overlap
     ethr =  1.00E-06,  avg # of iterations =  2.0

     Threshold (ethr) on eigenvalues was too large:
     Diagonalizing with lowered threshold

     Davidson diagonalization with overlap
     ethr =  3.77E-09,  avg # of iterations =  2.9

     total cpu time spent up to now is        5.7 secs

     total energy              =    -281.21452877 Ry
     estimated scf accuracy    <       0.00000062 Ry

     iteration #  2     ecut=    75.00 Ry     beta= 0.70
     Davidson diagonalization with overlap
     ethr =  3.86E-09,  avg # of iterations =  2.1

     total cpu time spent up to now is        5.8 secs

     total energy              =    -281.21452892 Ry
     estimated scf accuracy    <       0.00000007 Ry

     iteration #  3     ecut=    75.00 Ry     beta= 0.70
     Davidson diagonalization with overlap
     ethr =  4.10E-10,  avg # of iterations =  3.4

     total cpu time spent up to now is        5.9 secs

     total energy              =    -281.21452894 Ry
     estimated scf accuracy    <          8.1E-09 Ry

     iteration #  4     ecut=    75.00 Ry     beta= 0.70
     Davidson diagonalization with overlap
     ethr =  5.09E-11,  avg # of iterations =  5.4

     total cpu time spent up to now is        6.0 secs

     total energy              =    -281.21452895 Ry
     estimated scf accuracy    <          1.4E-09 Ry

     iteration #  5     ecut=    75.00 Ry     beta= 0.70
     Davidson diagonalization with overlap
     ethr =  8.74E-12,  avg # of iterations =  4.9

     total cpu time spent up to now is        6.1 secs

     total energy              =    -281.21452895 Ry
     estimated scf accuracy    <          5.1E-10 Ry

     iteration #  6     ecut=    75.00 Ry     beta= 0.70
     Davidson diagonalization with overlap
     ethr =  3.17E-12,  avg # of iterations =  2.5

     total cpu time spent up to now is        6.2 secs

     End of self-consistent calculation

          k = 0.0000 0.0000 0.0000 (  1985 PWs)   bands (ev):

    -7.4259  -7.3249  -7.1078  -7.1078  -7.0716  -5.1301   7.3426  10.3805
    10.6482  15.4229  16.2075  16.2075

          k = 0.0000-0.0000 0.2945 (  1993 PWs)   bands (ev):

    -7.4445  -7.3396  -7.0893  -7.0893  -7.0699  -3.5558   1.2607  10.1555
    13.0095  14.5003  14.5003  20.2537

          k =-0.0000 0.3340-0.1473 (  1965 PWs)   bands (ev):

    -7.3475  -7.2454  -7.1552  -7.1259  -7.0887  -2.7213   4.3872   6.0807
     9.2465  14.5896  17.4890  18.2988

          k =-0.0000 0.3340-0.4418 (  1966 PWs)   bands (ev):

    -7.3565  -7.2352  -7.1542  -7.1411  -7.0798  -0.1394   1.0205   3.0444
    11.5422  16.2600  18.6570  18.8159

          k = 0.1670 0.0000-0.0736 (  1976 PWs)   bands (ev):

    -7.3889  -7.2706  -7.1474  -7.1024  -7.0987  -4.5347   6.5831   9.0130
    10.9984  12.5968  16.5129  17.3176

          k = 0.1670-0.0000 0.2209 (  1980 PWs)   bands (ev):

    -7.3987  -7.2771  -7.1424  -7.1000  -7.0910  -3.7427   3.3076   7.9448
    11.5713  15.4715  16.1501  18.9220

          k = 0.1670 0.0000-0.3681 (  1987 PWs)   bands (ev):

    -7.4082  -7.2825  -7.1384  -7.0981  -7.0829  -2.2199   0.3535   7.3199
    11.6709  14.7788  17.8973  21.3181

          k = 0.1670 0.3340-0.2209 (  1976 PWs)   bands (ev):

    -7.2710  -7.2392  -7.2201  -7.1284  -7.1138  -1.7168   4.1970   5.1396
     9.3115  12.8014  16.0622  17.7458

          k = 0.1670 0.3340 0.0736 (  1964 PWs)   bands (ev):

    -7.2642  -7.2297  -7.2215  -7.1335  -7.1211  -2.4982   5.5689   7.0017
     9.3495  12.2329  14.1861  16.1394

          k = 0.1670 0.3340-0.5154 (  1976 PWs)   bands (ev):

    -7.2774  -7.2384  -7.2219  -7.1205  -7.1163  -0.2371   2.2910   3.5836
     9.1751  15.1208  17.3483  18.8987

          k = 0.3340 0.3340-0.2945 (  1982 PWs)   bands (ev):

    -7.3476  -7.2419  -7.1847  -7.1080  -7.0986   0.4771   4.5004   4.8563
     6.4183  13.0695  13.6660  15.6873

          k = 0.3340 0.3340 0.0000 (  1960 PWs)   bands (ev):

    -7.3471  -7.2445  -7.1739  -7.1191  -7.0923  -1.0712   6.8107   6.9203
     8.9145  10.0683  11.3715  14.1498

          k =-0.5010-0.0000 0.2209 (  1954 PWs)   bands (ev):

    -7.3315  -7.2886  -7.1826  -7.0824  -7.0582  -0.0618   0.7121   5.8753
     8.4757  15.4128  18.4835  19.6696

          k =-0.5010-0.0000 0.5154 (  1969 PWs)   bands (ev):

    -7.3312  -7.2790  -7.1823  -7.0827  -7.0690  -0.5075   1.8400   4.1451
    10.1987  15.3566  18.4020  18.8278

          k =-0.5010 0.3340 0.0736 (  1961 PWs)   bands (ev):

    -7.4032  -7.2731  -7.1796  -7.1029  -7.0204   1.4810   3.7723   5.7575
     7.5593  10.5605  12.5813  14.0813

          k =-0.5010 0.3340-0.2209 (  1964 PWs)   bands (ev):

    -7.4019  -7.2532  -7.2030  -7.1029  -7.0191   2.0705   2.4978   6.6699
     8.2488  10.2766  11.1241  14.7802

     the Fermi energy is     7.3522 ev

!    total energy              =    -281.21452895 Ry
     estimated scf accuracy    <          7.3E-11 Ry
     smearing contrib. (-TS)   =      -0.00006285 Ry
     internal energy E=F+TS    =    -281.21446610 Ry

     The total energy is F=E-TS. E is the sum of the following terms:
     one-electron contribution =     -98.84792940 Ry
     hartree contribution      =      64.57522102 Ry
     xc contribution           =     -40.29690080 Ry
     ewald contribution        =     -95.14347934 Ry
     one-center paw contrib.   =    -111.50137758 Ry

     convergence has been achieved in   6 iterations

     Forces acting on atoms (cartesian axes, Ry/au):

     atom    1 type  2   force =    -0.00000000    0.00000000   -0.00000000
     atom    2 type  1   force =     0.00000000   -0.00000000    0.00000000
     atom    3 type  1   force =    -0.00000000    0.00000000   -0.00000000
     atom    4 type  1   force =    -0.00000000    0.00000000   -0.00000000

     Total force =     0.000000     Total SCF correction =     0.000000


     Computing stress (Cartesian axis) and pressure

          total   stress  (Ry/bohr**3)                   (kbar)     P=        0.47
  -0.00009040  -0.00000000  -0.00000000          -13.30       -0.00       -0.00
  -0.00000000  -0.00009040  -0.00000000           -0.00      -13.30       -0.00
  -0.00000000  -0.00000000   0.00019039           -0.00       -0.00       28.01

     Energy error            =      2.1E-05 Ry
     Gradient error          =      2.6E-31 Ry/Bohr
     Cell gradient error     =      2.8E+01 kbar

     number of scf cycles    =   4
     number of bfgs steps    =   3

     enthalpy           old  =    -281.2145074991 Ry
     enthalpy           new  =    -281.2145289521 Ry

     CASE: enthalpy          _new < enthalpy          _old


     WARNING: bfgs curvature condition failed, Theta= 0.298
     new trust radius        =       0.0018924807 bohr
     new conv_thr            =            1.0E-10 Ry

     new unit-cell volume =    179.40421 a.u.^3 (    26.58496 Ang^3 )
     density =      4.54380 g/cm^3

CELL_PARAMETERS (alat=  5.41880856)
   0.997740703   0.000000000  -0.000000000
  -0.000000000   0.997740703   0.000000000
   0.498870352   0.498870352   1.132624203

ATOMIC_POSITIONS (crystal)
Ga           -0.0000000000       -0.0000000000        0.0000000000
H             0.7500000000        0.2500000000        0.5000000000
H             0.2500000000        0.7500000000        0.5000000000
H             0.5000000000        0.5000000000       -0.0000000000



     Writing config-only to output data dir ./gah3.save/
     NEW-OLD atomic charge density approx. for the potential
     extrapolated charge   16.00025, renormalised to   16.00000

     total cpu time spent up to now is        6.6 secs

     Self-consistent Calculation

     iteration #  1     ecut=    75.00 Ry     beta= 0.70
     Davidson diagonalization with overlap
     ethr =  1.00E-06,  avg # of iterations =  2.1

     Threshold (ethr) on eigenvalues was too large:
     Diagonalizing with lowered threshold

     Davidson diagonalization with overlap
     ethr =  9.40E-09,  avg # of iterations =  2.6

     total cpu time spent up to now is        6.8 secs

     total energy              =    -281.21456866 Ry
     estimated scf accuracy    <       0.00000152 Ry

     iteration #  2     ecut=    75.00 Ry     beta= 0.70
     Davidson diagonalization with overlap
     ethr =  9.49E-09,  avg # of iterations =  1.9

     total cpu time spent up to now is        6.9 secs

     total energy              =    -281.21456897 Ry
     estimated scf accuracy    <       0.00000013 Ry

     iteration #  3     ecut=    75.00 Ry     beta= 0.70
     Davidson diagonalization with overlap
     ethr =  7.83E-10,  avg # of iterations =  3.4

     total cpu time spent up to now is        7.0 secs

     total energy              =    -281.21456901 Ry
     estimated scf accuracy    <          8.8E-09 Ry

     iteration #  4     ecut=    75.00 Ry     beta= 0.70
     Davidson diagonalization with overlap
     ethr =  5.51E-11,  avg # of iterations =  6.5

     total cpu time spent up to now is        7.1 secs

     total energy              =    -281.21456903 Ry
     estimated scf accuracy    <          6.3E-10 Ry

     iteration #  5     ecut=    75.00 Ry     beta= 0.70
     Davidson diagonalization with overlap
     ethr =  3.92E-12,  avg # of iterations =  4.9

     total cpu time spent up to now is        7.3 secs

     total energy              =    -281.21456903 Ry
     estimated scf accuracy    <          3.5E-10 Ry

     iteration #  6     ecut=    75.00 Ry     beta= 0.70
     Davidson diagonalization with overlap
     ethr =  2.17E-12,  avg # of iterations =  1.4

     total cpu time spent up to now is        7.4 secs

     End of self-consistent calculation

          k = 0.0000 0.0000 0.0000 (  1985 PWs)   bands (ev):

    -7.4283  -7.3269  -7.1090  -7.1090  -7.0730  -5.1303   7.3269  10.3642
    10.6562  15.4279  16.2122  16.2122

          k = 0.0000-0.0000 0.2943 (  1993 PWs)   bands (ev):

    -7.4468  -7.3414  -7.0906  -7.0906  -7.0713  -3.5584   1.2528  10.1652
    13.0195  14.5101  14.5101  20.2276

          k =-0.0000 0.3341-0.1472 (  1965 PWs)   bands (ev):

    -7.3496  -7.2468  -7.1567  -7.1274  -7.0900  -2.7208   4.3896   6.0727
     9.2427  14.5852  17.4986  18.2938

          k =-0.0000 0.3341-0.4415 (  1966 PWs)   bands (ev):

    -7.3585  -7.2368  -7.1558  -7.1425  -7.0812  -0.1453   1.0195   3.0499
    11.5451  16.2723  18.6532  18.8062

          k = 0.1670 0.0000-0.0736 (  1976 PWs)   bands (ev):

    -7.3912  -7.2724  -7.1488  -7.1037  -7.1001  -4.5347   6.5700   9.0183
    10.9970  12.5837  16.5191  17.3218

          k = 0.1670-0.0000 0.2207 (  1980 PWs)   bands (ev):

    -7.4009  -7.2788  -7.1438  -7.1015  -7.0923  -3.7439   3.2978   7.9521
    11.5770  15.4808  16.1433  18.9092

          k = 0.1670 0.0000-0.3679 (  1987 PWs)   bands (ev):

    -7.4104  -7.2841  -7.1399  -7.0996  -7.0842  -2.2241   0.3485   7.3282
    11.6797  14.7897  17.9039  21.3138

          k = 0.1670 0.3341-0.2207 (  1976 PWs)   bands (ev):

    -7.2728  -7.2407  -7.2219  -7.1298  -7.1152  -1.7167   4.2002   5.1333
     9.3145  12.8003  16.0685  17.7453

          k = 0.1670 0.3341 0.0736 (  1964 PWs)   bands (ev):

    -7.2661  -7.2311  -7.2233  -7.1349  -7.1226  -2.4968   5.5702   6.9999
     9.3410  12.2336  14.1817  16.1431

          k = 0.1670 0.3341-0.5150 (  1976 PWs)   bands (ev):

    -7.2792  -7.2399  -7.2237  -7.1219  -7.1177  -0.2400   2.2876   3.5892
     9.1825  15.1141  17.3549  18.8972

          k = 0.3341 0.3341-0.2943 (  1982 PWs)   bands (ev):

    -7.3497  -7.2433  -7.1863  -7.1092  -7.1001   0.4771   4.5064   4.8528
     6.4233  13.0769  13.6572  15.6858

          k = 0.3341 0.3341 0.0000 (  1960 PWs)   bands (ev):

    -7.3492  -7.2458  -7.1756  -7.1203  -7.0938  -1.0685   6.8138   6.9207
     8.9130  10.0698  11.3733  14.1428

          k =-0.5011-0.0000 0.2207 (  1954 PWs)   bands (ev):

    -7.3335  -7.2901  -7.1843  -7.0837  -7.0595  -0.0608   0.7142   5.8695
     8.4681  15.4179  18.4961  19.6792

          k =-0.5011-0.0000 0.5150 (  1969 PWs)   bands (ev):

    -7.3332  -7.2806  -7.1840  -7.0840  -7.0702  -0.5050   1.8390   4.1427
    10.1903  15.3516  18.4150  18.8249

          k =-0.5011 0.3341 0.0736 (  1961 PWs)   bands (ev):

    -7.4054  -7.2744  -7.1812  -7.1042  -7.0218   1.4852   3.7729   5.7572
     7.5653  10.5636  12.5804  14.0727

          k =-0.5011 0.3341-0.2207 (  1964 PWs)   bands (ev):

    -7.4041  -7.2547  -7.2045  -7.1041  -7.0205   2.0733   2.5012   6.6713
     8.2524  10.2760  11.1203  14.7779

     the Fermi energy is     7.3524 ev

!    total energy              =    -281.21456903 Ry
     estimated scf accuracy    <          3.2E-11 Ry
     smearing contrib. (-TS)   =      -0.00006793 Ry
     internal energy E=F+TS    =    -281.21450110 Ry

     The total energy is F=E-TS. E is the sum of the following terms:
     one-electron contribution =     -98.86605437 Ry
     hartree contribution      =      64.58556215 Ry
     xc contribution           =     -40.29757400 Ry
     ewald contribution        =     -95.13365203 Ry
     one-center paw contrib.   =    -111.50278285 Ry

     convergence has been achieved in   6 iterations

     Forces acting on atoms (cartesian axes, Ry/au):

     atom    1 type  2   force =    -0.00000000    0.00000000   -0.00000000
     atom    2 type  1   force =     0.00000000   -0.00000000    0.00000000
     atom    3 type  1   force =     0.00000000   -0.00000000    0.00000000
     atom    4 type  1   force =     0.00000000    0.00000000    0.00000000

     Total force =     0.000000     Total SCF correction =     0.000000


     Computing stress (Cartesian axis) and pressure

          total   stress  (Ry/bohr**3)                   (kbar)     P=        0.76
  -0.00011372  -0.00000000  -0.00000000          -16.73       -0.00       -0.00
  -0.00000000  -0.00011372  -0.00000000           -0.00      -16.73       -0.00
  -0.00000000  -0.00000000   0.00024293           -0.00       -0.00       35.74

     Energy error            =      4.0E-05 Ry
     Gradient error          =      5.4E-31 Ry/Bohr
     Cell gradient error     =      3.6E+01 kbar

     number of scf cycles    =   5
     number of bfgs steps    =   4

     enthalpy           old  =    -281.2145289521 Ry
     enthalpy           new  =    -281.2145690285 Ry

     CASE: enthalpy          _new < enthalpy          _old


     WARNING: bfgs curvature condition failed, Theta= 0.366
     new trust radius        =       0.0028367392 bohr
     new conv_thr            =            1.0E-10 Ry

     new unit-cell volume =    179.40302 a.u.^3 (    26.58478 Ang^3 )
     density =      4.54383 g/cm^3

CELL_PARAMETERS (alat=  5.41880856)
   0.997209528   0.000000000  -0.000000000
  -0.000000000   0.997209528   0.000000000
   0.498604764   0.498604764   1.133823589

ATOMIC_POSITIONS (crystal)
Ga           -0.0000000000       -0.0000000000        0.0000000000
H             0.7500000000        0.2500000000        0.5000000000
H             0.2500000000        0.7500000000        0.5000000000
H             0.5000000000        0.5000000000       -0.0000000000



     Writing config-only to output data dir ./gah3.save/
     NEW-OLD atomic charge density approx. for the potential
     extrapolated charge   15.99989, renormalised to   16.00000

     total cpu time spent up to now is        7.7 secs

     Self-consistent Calculation

     iteration #  1     ecut=    75.00 Ry     beta= 0.70
     Davidson diagonalization with overlap
     ethr =  1.00E-06,  avg # of iterations =  2.3

     Threshold (ethr) on eigenvalues was too large:
     Diagonalizing with lowered threshold

     Davidson diagonalization with overlap
     ethr =  1.80E-08,  avg # of iterations =  2.6

     total cpu time spent up to now is        7.9 secs

     total energy              =    -281.21464664 Ry
     estimated scf accuracy    <       0.00000292 Ry

     iteration #  2     ecut=    75.00 Ry     beta= 0.70
     Davidson diagonalization with overlap
     ethr =  1.83E-08,  avg # of iterations =  1.9

     total cpu time spent up to now is        8.1 secs

     total energy              =    -281.21464715 Ry
     estimated scf accuracy    <       0.00000020 Ry

     iteration #  3     ecut=    75.00 Ry     beta= 0.70
     Davidson diagonalization with overlap
     ethr =  1.22E-09,  avg # of iterations =  4.6

     total cpu time spent up to now is        8.2 secs

     total energy              =    -281.21464724 Ry
     estimated scf accuracy    <       0.00000002 Ry

     iteration #  4     ecut=    75.00 Ry     beta= 0.70
     Davidson diagonalization with overlap
     ethr =  1.09E-10,  avg # of iterations =  5.4

     total cpu time spent up to now is        8.3 secs

     total energy              =    -281.21464726 Ry
     estimated scf accuracy    <          3.0E-09 Ry

     iteration #  5     ecut=    75.00 Ry     beta= 0.70
     Davidson diagonalization with overlap
     ethr =  1.87E-11,  avg # of iterations =  3.5

     total cpu time spent up to now is        8.4 secs

     total energy              =    -281.21464726 Ry
     estimated scf accuracy    <          2.5E-10 Ry

     iteration #  6     ecut=    75.00 Ry     beta= 0.70
     Davidson diagonalization with overlap
     ethr =  1.55E-12,  avg # of iterations =  5.3

     total cpu time spent up to now is        8.5 secs

     End of self-consistent calculation

          k = 0.0000 0.0000 0.0000 (  1985 PWs)   bands (ev):

    -7.4314  -7.3295  -7.1105  -7.1105  -7.0746  -5.1304   7.3032  10.3400
    10.6689  15.4358  16.2197  16.2197

          k = 0.0000-0.0000 0.2940 (  1993 PWs)   bands (ev):

    -7.4497  -7.3439  -7.0923  -7.0923  -7.0729  -3.5624   1.2411  10.1805
    13.0348  14.5255  14.5255  20.1888

          k =-0.0000 0.3343-0.1470 (  1965 PWs)   bands (ev):

    -7.3523  -7.2486  -7.1587  -7.1292  -7.0915  -2.7200   4.3933   6.0608
     9.2374  14.5787  17.5136  18.2869

          k =-0.0000 0.3343-0.4410 (  1966 PWs)   bands (ev):

    -7.3612  -7.2387  -7.1577  -7.1440  -7.0828  -0.1543   1.0182   3.0585
    11.5498  16.2916  18.6482  18.7922

          k = 0.1671 0.0000-0.0735 (  1976 PWs)   bands (ev):

    -7.3941  -7.2747  -7.1504  -7.1052  -7.1017  -4.5347   6.5504   9.0266
    10.9953  12.5645  16.5290  17.3285

          k = 0.1671-0.0000 0.2205 (  1980 PWs)   bands (ev):

    -7.4038  -7.2810  -7.1455  -7.1032  -7.0940  -3.7458   3.2833   7.9635
    11.5860  15.4954  16.1332  18.8909

          k = 0.1671 0.0000-0.3675 (  1987 PWs)   bands (ev):

    -7.4132  -7.2863  -7.1416  -7.1013  -7.0859  -2.2303   0.3411   7.3412
    11.6935  14.8067  17.9144  21.3079

          k = 0.1671 0.3343-0.2205 (  1976 PWs)   bands (ev):

    -7.2752  -7.2424  -7.2241  -7.1314  -7.1169  -1.7165   4.2053   5.1241
     9.3196  12.7990  16.0784  17.7451

          k = 0.1671 0.3343 0.0735 (  1964 PWs)   bands (ev):

    -7.2685  -7.2329  -7.2255  -7.1365  -7.1243  -2.4946   5.5723   6.9974
     9.3287  12.2350  14.1756  16.1490

          k = 0.1671 0.3343-0.5145 (  1976 PWs)   bands (ev):

    -7.2815  -7.2417  -7.2259  -7.1235  -7.1195  -0.2443   2.2826   3.5979
     9.1939  15.1045  17.3654  18.8955

          k = 0.3343 0.3343-0.2940 (  1982 PWs)   bands (ev):

    -7.3524  -7.2450  -7.1882  -7.1107  -7.1020   0.4773   4.5158   4.8477
     6.4313  13.0885  13.6444  15.6841

          k = 0.3343 0.3343 0.0000 (  1960 PWs)   bands (ev):

    -7.3519  -7.2474  -7.1776  -7.1218  -7.0957  -1.0643   6.8190   6.9214
     8.9110  10.0727  11.3767  14.1328

          k =-0.5014-0.0000 0.2205 (  1954 PWs)   bands (ev):

    -7.3361  -7.2920  -7.1863  -7.0853  -7.0611  -0.0594   0.7177   5.8611
     8.4572  15.4258  18.5158  19.6943

          k =-0.5014-0.0000 0.5145 (  1969 PWs)   bands (ev):

    -7.3358  -7.2825  -7.1861  -7.0856  -7.0716  -0.5012   1.8377   4.1395
    10.1778  15.3445  18.4353  18.8212

          k =-0.5014 0.3343 0.0735 (  1961 PWs)   bands (ev):

    -7.4083  -7.2761  -7.1832  -7.1057  -7.0233   1.4918   3.7741   5.7570
     7.5747  10.5688  12.5796  14.0603

          k =-0.5014 0.3343-0.2205 (  1964 PWs)   bands (ev):

    -7.4071  -7.2566  -7.2063  -7.1057  -7.0220   2.0776   2.5066   6.6734
     8.2584  10.2755  11.1151  14.7751

     the Fermi energy is     7.3543 ev

!    total energy              =    -281.21464726 Ry
     estimated scf accuracy    <          2.9E-11 Ry
     smearing contrib. (-TS)   =      -0.00005524 Ry
     internal energy E=F+TS    =    -281.21459202 Ry

     The total energy is F=E-TS. E is the sum of the following terms:
     one-electron contribution =     -98.89225987 Ry
     hartree contribution      =      64.60071187 Ry
     xc contribution           =     -40.29857007 Ry
     ewald contribution        =     -95.11965808 Ry
     one-center paw contrib.   =    -111.50481587 Ry

     convergence has been achieved in   6 iterations

     Forces acting on atoms (cartesian axes, Ry/au):

     atom    1 type  2   force =     0.00000000    0.00000000    0.00000000
     atom    2 type  1   force =     0.00000000   -0.00000000    0.00000000
     atom    3 type  1   force =    -0.00000000    0.00000000   -0.00000000
     atom    4 type  1   force =     0.00000000   -0.00000000    0.00000000

     Total force =     0.000000     Total SCF correction =     0.000000


     Computing stress (Cartesian axis) and pressure

          total   stress  (Ry/bohr**3)                   (kbar)     P=        1.18
  -0.00014559  -0.00000000  -0.00000000          -21.42       -0.00       -0.00
  -0.00000000  -0.00014559  -0.00000000           -0.00      -21.42       -0.00
  -0.00000000  -0.00000000   0.00031520           -0.00       -0.00       46.37

     Energy error            =      7.8E-05 Ry
     Gradient error          =      8.7E-32 Ry/Bohr
     Cell gradient error     =      4.6E+01 kbar

     number of scf cycles    =   6
     number of bfgs steps    =   5

     enthalpy           old  =    -281.2145690285 Ry
     enthalpy           new  =    -281.2146472574 Ry

     CASE: enthalpy          _new < enthalpy          _old


     WARNING: bfgs curvature condition failed, Theta= 0.513
     new trust radius        =       0.0003014554 bohr
     new conv_thr            =            1.0E-10 Ry

     new unit-cell volume =    179.38272 a.u.^3 (    26.58178 Ang^3 )
     density =      4.54434 g/cm^3

CELL_PARAMETERS (alat=  5.41880856)
   0.997097310   0.000000000  -0.000000000
  -0.000000000   0.997097310  -0.000000000
   0.498548655   0.498548655   1.133950486

ATOMIC_POSITIONS (crystal)
Ga            0.0000000000        0.0000000000       -0.0000000000
H             0.7500000000        0.2500000000        0.5000000000
H             0.2500000000        0.7500000000        0.5000000000
H             0.5000000000        0.5000000000       -0.0000000000



     Writing config-only to output data dir ./gah3.save/
     NEW-OLD atomic charge density approx. for the potential
     extrapolated charge   15.99819, renormalised to   16.00000

     total cpu time spent up to now is        8.9 secs

     Self-consistent Calculation

     iteration #  1     ecut=    75.00 Ry     beta= 0.70
     Davidson diagonalization with overlap
     ethr =  1.00E-06,  avg # of iterations =  2.0

     Threshold (ethr) on eigenvalues was too large:
     Diagonalizing with lowered threshold

     Davidson diagonalization with overlap
     ethr =  8.57E-09,  avg # of iterations =  4.5

     total cpu time spent up to now is        9.1 secs

     total energy              =    -281.21465665 Ry
     estimated scf accuracy    <       0.00000339 Ry

     iteration #  2     ecut=    75.00 Ry     beta= 0.70
     Davidson diagonalization with overlap
     ethr =  2.12E-08,  avg # of iterations =  5.5

     total cpu time spent up to now is        9.2 secs

     total energy              =    -281.21465950 Ry
     estimated scf accuracy    <       0.00000666 Ry

     iteration #  3     ecut=    75.00 Ry     beta= 0.70
     Davidson diagonalization with overlap
     ethr =  2.12E-08,  avg # of iterations =  1.0

     total cpu time spent up to now is        9.4 secs

     total energy              =    -281.21465958 Ry
     estimated scf accuracy    <       0.00000206 Ry

     iteration #  4     ecut=    75.00 Ry     beta= 0.70
     Davidson diagonalization with overlap
     ethr =  1.29E-08,  avg # of iterations =  1.4

     total cpu time spent up to now is        9.5 secs

     total energy              =    -281.21465940 Ry
     estimated scf accuracy    <       0.00000094 Ry

     iteration #  5     ecut=    75.00 Ry     beta= 0.70
     Davidson diagonalization with overlap
     ethr =  5.87E-09,  avg # of iterations =  1.9

     total cpu time spent up to now is        9.6 secs

     total energy              =    -281.21465946 Ry
     estimated scf accuracy    <       0.00000014 Ry

     iteration #  6     ecut=    75.00 Ry     beta= 0.70
     Davidson diagonalization with overlap
     ethr =  8.71E-10,  avg # of iterations =  5.8

     total cpu time spent up to now is        9.8 secs

     total energy              =    -281.21465963 Ry
     estimated scf accuracy    <       0.00000012 Ry

     iteration #  7     ecut=    75.00 Ry     beta= 0.70
     Davidson diagonalization with overlap
     ethr =  7.19E-10,  avg # of iterations =  1.0

     total cpu time spent up to now is       10.0 secs

     total energy              =    -281.21465963 Ry
     estimated scf accuracy    <       0.00000012 Ry

     iteration #  8     ecut=    75.00 Ry     beta= 0.70
     Davidson diagonalization with overlap
     ethr =  7.19E-10,  avg # of iterations =  1.0

     total cpu time spent up to now is       10.1 secs

     total energy              =    -281.21465963 Ry
     estimated scf accuracy    <       0.00000013 Ry

     iteration #  9     ecut=    75.00 Ry     beta= 0.70
     Davidson diagonalization with overlap
     ethr =  7.19E-10,  avg # of iterations =  1.0

     total cpu time spent up to now is       10.2 secs

     total energy              =    -281.21465961 Ry
     estimated scf accuracy    <       0.00000012 Ry

     iteration # 10     ecut=    75.00 Ry     beta= 0.70
     Davidson diagonalization with overlap
     ethr =  7.19E-10,  avg # of iterations =  1.0

     total cpu time spent up to now is       10.3 secs

     total energy              =    -281.21465961 Ry
     estimated scf accuracy    <       0.00000006 Ry

     iteration # 11     ecut=    75.00 Ry     beta= 0.70
     Davidson diagonalization with overlap
     ethr =  3.80E-10,  avg # of iterations =  1.0

     total cpu time spent up to now is       10.4 secs

     total energy              =    -281.21465961 Ry
     estimated scf accuracy    <       0.00000005 Ry

     iteration # 12     ecut=    75.00 Ry     beta= 0.70
     Davidson diagonalization with overlap
     ethr =  2.87E-10,  avg # of iterations =  1.0

     total cpu time spent up to now is       10.5 secs

     total energy              =    -281.21465962 Ry
     estimated scf accuracy    <       0.00000005 Ry

     iteration # 13     ecut=    75.00 Ry     beta= 0.70
     Davidson diagonalization with overlap
     ethr =  2.87E-10,  avg # of iterations =  1.0

     total cpu time spent up to now is       10.7 secs

     total energy              =    -281.21465962 Ry
     estimated scf accuracy    <       0.00000006 Ry

     iteration # 14     ecut=    75.00 Ry     beta= 0.70
     Davidson diagonalization with overlap
     ethr =  2.87E-10,  avg # of iterations =  1.0

     total cpu time spent up to now is       10.8 secs

     total energy              =    -281.21465962 Ry
     estimated scf accuracy    <       0.00000006 Ry

     iteration # 15     ecut=    75.00 Ry     beta= 0.70
     Davidson diagonalization with overlap
     ethr =  2.87E-10,  avg # of iterations =  1.0

     total cpu time spent up to now is       11.0 secs

     total energy              =    -281.21465963 Ry
     estimated scf accuracy    <       0.00000006 Ry

     iteration # 16     ecut=    75.00 Ry     beta= 0.70
     Davidson diagonalization with overlap
     ethr =  2.87E-10,  avg # of iterations =  1.1

     total cpu time spent up to now is       11.1 secs

     total energy              =    -281.21465959 Ry
     estimated scf accuracy    <       0.00000017 Ry

     iteration # 17     ecut=    75.00 Ry     beta= 0.70
     Davidson diagonalization with overlap
     ethr =  2.87E-10,  avg # of iterations =  4.0

     total cpu time spent up to now is       11.2 secs

     total energy              =    -281.21465964 Ry
     estimated scf accuracy    <       0.00000001 Ry

     iteration # 18     ecut=    75.00 Ry     beta= 0.70
     Davidson diagonalization with overlap
     ethr =  8.42E-11,  avg # of iterations =  5.4

     total cpu time spent up to now is       11.4 secs

     total energy              =    -281.21465957 Ry
     estimated scf accuracy    <       0.00000030 Ry

     iteration # 19     ecut=    75.00 Ry     beta= 0.70
     Davidson diagonalization with overlap
     ethr =  8.42E-11,  avg # of iterations =  6.5

     total cpu time spent up to now is       11.5 secs

     total energy              =    -281.21465961 Ry
     estimated scf accuracy    <          3.5E-09 Ry

     iteration # 20     ecut=    75.00 Ry     beta= 0.70
     Davidson diagonalization with overlap
     ethr =  2.20E-11,  avg # of iterations =  2.1

     total cpu time spent up to now is       11.6 secs

     total energy              =    -281.21465961 Ry
     estimated scf accuracy    <          1.3E-09 Ry

     iteration # 21     ecut=    75.00 Ry     beta= 0.70
     Davidson diagonalization with overlap
     ethr =  8.23E-12,  avg # of iterations =  1.0

     total cpu time spent up to now is       11.8 secs

     total energy              =    -281.21465961 Ry
     estimated scf accuracy    <          5.8E-10 Ry

     iteration # 22     ecut=    75.00 Ry     beta= 0.70
     Davidson diagonalization with overlap
     ethr =  3.60E-12,  avg # of iterations =  2.6

     total cpu time spent up to now is       11.9 secs

     End of self-consistent calculation

          k = 0.0000 0.0000 0.0000 (  1985 PWs)   bands (ev):

    -7.4305  -7.3285  -7.1093  -7.1093  -7.0735  -5.1302   7.3013  10.3380
    10.6724  15.4395  16.2229  16.2229

          k = 0.0000 0.0000 0.2940 (  1993 PWs)   bands (ev):

    -7.4488  -7.3430  -7.0911  -7.0911  -7.0718  -3.5625   1.2402  10.1843
    13.0390  14.5295  14.5295  20.1859

          k =-0.0000 0.3343-0.1470 (  1965 PWs)   bands (ev):

    -7.3514  -7.2475  -7.1576  -7.1280  -7.0903  -2.7193   4.3949   6.0604
     9.2384  14.5797  17.5180  18.2880

          k =-0.0000 0.3343-0.4409 (  1966 PWs)   bands (ev):

    -7.3602  -7.2377  -7.1566  -7.1429  -7.0816  -0.1549   1.0188   3.0608
    11.5523  16.2963  18.6497  18.7925

          k = 0.1672-0.0000-0.0735 (  1976 PWs)   bands (ev):

    -7.3932  -7.2736  -7.1492  -7.1041  -7.1006  -4.5343   6.5489   9.0293
    10.9968  12.5637  16.5325  17.3317

          k = 0.1672 0.0000 0.2205 (  1980 PWs)   bands (ev):

    -7.4029  -7.2800  -7.1444  -7.1020  -7.0928  -3.7456   3.2822   7.9666
    11.5892  15.4994  16.1338  18.8906

          k = 0.1672-0.0000-0.3674 (  1987 PWs)   bands (ev):

    -7.4122  -7.2853  -7.1405  -7.1002  -7.0847  -2.2306   0.3407   7.3444
    11.6973  14.8109  17.9181  21.3095

          k = 0.1672 0.3343-0.2205 (  1976 PWs)   bands (ev):

    -7.2742  -7.2413  -7.2231  -7.1303  -7.1158  -1.7159   4.2070   5.1240
     9.3220  12.8005  16.0819  17.7472

          k = 0.1672 0.3343 0.0735 (  1964 PWs)   bands (ev):

    -7.2675  -7.2318  -7.2245  -7.1354  -7.1231  -2.4938   5.5738   6.9983
     9.3287  12.2369  14.1768  16.1515

          k = 0.1672 0.3343-0.5144 (  1976 PWs)   bands (ev):

    -7.2805  -7.2406  -7.2249  -7.1223  -7.1183  -0.2442   2.2828   3.6002
     9.1971  15.1051  17.3691  18.8976

          k = 0.3343 0.3343-0.2940 (  1982 PWs)   bands (ev):

    -7.3515  -7.2439  -7.1871  -7.1095  -7.1009   0.4781   4.5182   4.8480
     6.4339  13.0919  13.6445  15.6859

          k = 0.3343 0.3343-0.0000 (  1960 PWs)   bands (ev):

    -7.3510  -7.2463  -7.1766  -7.1207  -7.0946  -1.0631   6.8211   6.9228
     8.9120  10.0751  11.3787  14.1331

          k =-0.5015 0.0000 0.2205 (  1954 PWs)   bands (ev):

    -7.3352  -7.2909  -7.1852  -7.0841  -7.0599  -0.0586   0.7191   5.8610
     8.4572  15.4289  18.5210  19.6986

          k =-0.5015 0.0000 0.5144 (  1969 PWs)   bands (ev):

    -7.3349  -7.2815  -7.1850  -7.0844  -7.0704  -0.5000   1.8385   4.1401
    10.1778  15.3454  18.4406  18.8229

          k =-0.5015 0.3343 0.0735 (  1961 PWs)   bands (ev):

    -7.4075  -7.2750  -7.1822  -7.1045  -7.0221   1.4936   3.7753   5.7581
     7.5776  10.5711  12.5811  14.0604

          k =-0.5015 0.3343-0.2205 (  1964 PWs)   bands (ev):

    -7.4062  -7.2555  -7.2052  -7.1045  -7.0208   2.0790   2.5085   6.6749
     8.2611  10.2769  11.1159  14.7766

     the Fermi energy is     7.3561 ev

!    total energy              =    -281.21465961 Ry
     estimated scf accuracy    <          4.5E-11 Ry
     smearing contrib. (-TS)   =      -0.00005208 Ry
     internal energy E=F+TS    =    -281.21460753 Ry

     The total energy is F=E-TS. E is the sum of the following terms:
     one-electron contribution =     -98.89020514 Ry
     hartree contribution      =      64.60089924 Ry
     xc contribution           =     -40.29884893 Ry
     ewald contribution        =     -95.12123353 Ry
     one-center paw contrib.   =    -111.50521917 Ry

     convergence has been achieved in  22 iterations

     Forces acting on atoms (cartesian axes, Ry/au):

     atom    1 type  2   force =    -0.00000000   -0.00000000   -0.00000000
     atom    2 type  1   force =    -0.00000000   -0.00000000   -0.00000000
     atom    3 type  1   force =     0.00000000    0.00000000    0.00000000
     atom    4 type  1   force =     0.00000000    0.00000000    0.00000000

     Total force =     0.000000     Total SCF correction =     0.000000


     Computing stress (Cartesian axis) and pressure

          total   stress  (Ry/bohr**3)                   (kbar)     P=        1.34
  -0.00014828  -0.00000000   0.00000000          -21.81       -0.00        0.00
  -0.00000000  -0.00014828   0.00000000           -0.00      -21.81        0.00
   0.00000000   0.00000000   0.00032382            0.00        0.00       47.64

     Energy error            =      1.2E-05 Ry
     Gradient error          =      2.2E-31 Ry/Bohr
     Cell gradient error     =      4.8E+01 kbar

     number of scf cycles    =   7
     number of bfgs steps    =   6

     enthalpy           old  =    -281.2146472574 Ry
     enthalpy           new  =    -281.2146596080 Ry

     CASE: enthalpy          _new < enthalpy          _old


     WARNING: bfgs curvature condition failed, Theta= 0.782
     new trust radius        =       0.0003316195 bohr
     new conv_thr            =            1.0E-10 Ry

     new unit-cell volume =    179.35565 a.u.^3 (    26.57777 Ang^3 )
     density =      4.54503 g/cm^3

CELL_PARAMETERS (alat=  5.41880856)
   0.996973869   0.000000000   0.000000000
  -0.000000000   0.996973869   0.000000000
   0.498486935   0.498486935   1.134060161

ATOMIC_POSITIONS (crystal)
Ga            0.0000000000        0.0000000000       -0.0000000000
H             0.7500000000        0.2500000000        0.5000000000
H             0.2500000000        0.7500000000        0.5000000000
H             0.5000000000        0.5000000000       -0.0000000000



     Writing config-only to output data dir ./gah3.save/
     NEW-OLD atomic charge density approx. for the potential
     extrapolated charge   15.99759, renormalised to   16.00000

     total cpu time spent up to now is       12.2 secs

     Self-consistent Calculation

     iteration #  1     ecut=    75.00 Ry     beta= 0.70
     Davidson diagonalization with overlap
     ethr =  1.00E-06,  avg # of iterations =  2.0

     Threshold (ethr) on eigenvalues was too large:
     Diagonalizing with lowered threshold

     Davidson diagonalization with overlap
     ethr =  1.49E-08,  avg # of iterations =  4.2

     total cpu time spent up to now is       12.4 secs

     total energy              =    -281.21466648 Ry
     estimated scf accuracy    <       0.00000618 Ry

     iteration #  2     ecut=    75.00 Ry     beta= 0.70
     Davidson diagonalization with overlap
     ethr =  3.87E-08,  avg # of iterations =  5.4

     total cpu time spent up to now is       12.6 secs

     total energy              =    -281.21467175 Ry
     estimated scf accuracy    <       0.00001257 Ry

     iteration #  3     ecut=    75.00 Ry     beta= 0.70
     Davidson diagonalization with overlap
     ethr =  3.87E-08,  avg # of iterations =  1.0

     total cpu time spent up to now is       12.7 secs

     total energy              =    -281.21467193 Ry
     estimated scf accuracy    <       0.00000398 Ry

     iteration #  4     ecut=    75.00 Ry     beta= 0.70
     Davidson diagonalization with overlap
     ethr =  2.49E-08,  avg # of iterations =  1.4

     total cpu time spent up to now is       12.8 secs

     total energy              =    -281.21467152 Ry
     estimated scf accuracy    <       0.00000199 Ry

     iteration #  5     ecut=    75.00 Ry     beta= 0.70
     Davidson diagonalization with overlap
     ethr =  1.24E-08,  avg # of iterations =  1.9

     total cpu time spent up to now is       12.9 secs

     total energy              =    -281.21467163 Ry
     estimated scf accuracy    <       0.00000034 Ry

     iteration #  6     ecut=    75.00 Ry     beta= 0.70
     Davidson diagonalization with overlap
     ethr =  2.13E-09,  avg # of iterations =  5.2

     total cpu time spent up to now is       13.0 secs

     total energy              =    -281.21467193 Ry
     estimated scf accuracy    <       0.00000010 Ry

     iteration #  7     ecut=    75.00 Ry     beta= 0.70
     Davidson diagonalization with overlap
     ethr =  6.38E-10,  avg # of iterations =  2.0

     total cpu time spent up to now is       13.1 secs

     total energy              =    -281.21467194 Ry
     estimated scf accuracy    <       0.00000007 Ry

     iteration #  8     ecut=    75.00 Ry     beta= 0.70
     Davidson diagonalization with overlap
     ethr =  4.59E-10,  avg # of iterations =  1.2

[...]
     Generated using &quot;atomic&quot; code by A. Dal Corso  v.6.3MaX
     Using radial grid of  929 points,  2 beta functions with: 
                l(1) =   0
                l(2) =   0
     Q(r) pseudized with 0 coefficients 


     PseudoPot. # 2 for Ga read from file:
     /home/garima.iitr/.cache/.es/compmat/gah3/Ga.pbe-dn-kjpaw_psl.1.0.0.UPF
     MD5 check sum: 50ce49cbf7e0a40ad8623bf41840a268
     Pseudo is Projector augmented-wave + core cor, Zval = 13.0
     Generated using &quot;atomic&quot; code by A. Dal Corso  v.6.3
     Shape of augmentation charge: PSQ
     Using radial grid of 1205 points,  6 beta functions with: 
                l(1) =   0
                l(2) =   0
                l(3) =   1
                l(4) =   1
                l(5) =   2
                l(6) =   2
     Q(r) pseudized with 0 coefficients 


     atomic species   valence    mass     pseudopotential
        H              1.00     1.00750     H ( 1.00)
        Ga            13.00    69.72300     Ga( 1.00)

     16 Sym. Ops., with inversion, found



   Cartesian axes

     site n.     atom                  positions (alat units)
         1           Ga  tau(   1) = (  -0.0000000  -0.0000000  -0.0000000  )
         2           H   tau(   2) = (   0.9902585   0.4951293   0.5777989  )
         3           H   tau(   3) = (   0.4951293   0.9902585   0.5777989  )
         4           H   tau(   4) = (   0.4951293   0.4951293  -0.0000000  )

     number of k points=    16  Marzari-Vanderbilt smearing, width (Ry)=  0.0050
                       cart. coord. in units 2pi/alat
        k(    1) = (   0.0000000   0.0000000   0.0000000), wk =   0.0370370
        k(    2) = (   0.0000000   0.0000000   0.2884510), wk =   0.0740741
        k(    3) = (  -0.0000000   0.3366124  -0.1442255), wk =   0.2962963
        k(    4) = (  -0.0000000   0.3366124  -0.4326765), wk =   0.1481481
        k(    5) = (   0.1683062  -0.0000000  -0.0721128), wk =   0.0740741
        k(    6) = (   0.1683062   0.0000000   0.2163383), wk =   0.0740741
        k(    7) = (   0.1683062  -0.0000000  -0.3605638), wk =   0.0740741
        k(    8) = (   0.1683062   0.3366124  -0.2163383), wk =   0.1481481
        k(    9) = (   0.1683062   0.3366124   0.0721128), wk =   0.1481481
        k(   10) = (   0.1683062   0.3366124  -0.5047893), wk =   0.1481481
        k(   11) = (   0.3366124   0.3366124  -0.2884510), wk =   0.2962963
        k(   12) = (   0.3366124   0.3366124  -0.0000000), wk =   0.1481481
        k(   13) = (  -0.5049187   0.0000000   0.2163383), wk =   0.0370370
        k(   14) = (  -0.5049187   0.0000000   0.5047893), wk =   0.0740741
        k(   15) = (  -0.5049187   0.3366124   0.0721128), wk =   0.1481481
        k(   16) = (  -0.5049187   0.3366124  -0.2163383), wk =   0.0740741

     Dense  grid:    22155 G-vectors     FFT dimensions: (  36,  36,  45)

     Smooth grid:    15751 G-vectors     FFT dimensions: (  30,  30,  45)

     Estimated max dynamical RAM per process >       7.63 MB

     Estimated total dynamical RAM >       1.04 GB

     Initial potential from superposition of free atoms

     starting charge      15.9970, renormalised to      16.0000
     Starting wfcs are   12 randomized atomic wfcs
     Checking if some PAW data can be deallocated... 

     total cpu time spent up to now is       27.6 secs

     Self-consistent Calculation

     iteration #  1     ecut=    75.00 Ry     beta= 0.70
     Davidson diagonalization with overlap
     c_bands:  2 eigenvalues not converged
     ethr =  1.00E-06,  avg # of iterations = 40.9

     total cpu time spent up to now is       27.8 secs

     total energy              =    -281.19121660 Ry
     estimated scf accuracy    <       0.08334544 Ry

     iteration #  2     ecut=    75.00 Ry     beta= 0.70
     Davidson diagonalization with overlap
     ethr =  5.21E-04,  avg # of iterations =  2.0

     total cpu time spent up to now is       27.8 secs

     total energy              =    -281.21211583 Ry
     estimated scf accuracy    <       0.00807029 Ry

     iteration #  3     ecut=    75.00 Ry     beta= 0.70
     Davidson diagonalization with overlap
     ethr =  5.04E-05,  avg # of iterations =  3.9

     total cpu time spent up to now is       27.9 secs

     total energy              =    -281.21488077 Ry
     estimated scf accuracy    <       0.00285503 Ry

     iteration #  4     ecut=    75.00 Ry     beta= 0.70
     Davidson diagonalization with overlap
     ethr =  1.78E-05,  avg # of iterations =  3.1

     total cpu time spent up to now is       27.9 secs

     total energy              =    -281.21518619 Ry
     estimated scf accuracy    <       0.00140004 Ry

     iteration #  5     ecut=    75.00 Ry     beta= 0.70
     Davidson diagonalization with overlap
     ethr =  8.75E-06,  avg # of iterations =  4.4

     total cpu time spent up to now is       28.0 secs

     total energy              =    -281.21510930 Ry
     estimated scf accuracy    <       0.00281533 Ry

     iteration #  6     ecut=    75.00 Ry     beta= 0.70
     Davidson diagonalization with overlap
     ethr =  8.75E-06,  avg # of iterations =  1.9

     total cpu time spent up to now is       28.0 secs

     total energy              =    -281.21527772 Ry
     estimated scf accuracy    <       0.00002094 Ry

     iteration #  7     ecut=    75.00 Ry     beta= 0.70
     Davidson diagonalization with overlap
     ethr =  1.31E-07,  avg # of iterations = 11.4

     total cpu time spent up to now is       28.1 secs

     total energy              =    -281.21539046 Ry
     estimated scf accuracy    <       0.00112052 Ry

     iteration #  8     ecut=    75.00 Ry     beta= 0.70
     Davidson diagonalization with overlap
     ethr =  1.31E-07,  avg # of iterations =  6.5

     total cpu time spent up to now is       28.2 secs

     total energy              =    -281.21544966 Ry
     estimated scf accuracy    <       0.00006559 Ry

     iteration #  9     ecut=    75.00 Ry     beta= 0.70
     Davidson diagonalization with overlap
     ethr =  1.31E-07,  avg # of iterations =  1.2

     total cpu time spent up to now is       28.2 secs

     total energy              =    -281.21544559 Ry
     estimated scf accuracy    <       0.00002412 Ry

     iteration # 10     ecut=    75.00 Ry     beta= 0.70
     Davidson diagonalization with overlap
     ethr =  1.31E-07,  avg # of iterations =  3.9

     total cpu time spent up to now is       28.3 secs

     total energy              =    -281.21545154 Ry
     estimated scf accuracy    <       0.00000254 Ry

     iteration # 11     ecut=    75.00 Ry     beta= 0.70
     Davidson diagonalization with overlap
     ethr =  1.59E-08,  avg # of iterations =  4.9

     total cpu time spent up to now is       28.3 secs

     total energy              =    -281.21545195 Ry
     estimated scf accuracy    <       0.00000583 Ry

     iteration # 12     ecut=    75.00 Ry     beta= 0.70
     Davidson diagonalization with overlap
     ethr =  1.59E-08,  avg # of iterations =  1.0

     total cpu time spent up to now is       28.4 secs

     total energy              =    -281.21545379 Ry
     estimated scf accuracy    <       0.00000243 Ry

     iteration # 13     ecut=    75.00 Ry     beta= 0.70
     Davidson diagonalization with overlap
     ethr =  1.52E-08,  avg # of iterations =  2.8

     total cpu time spent up to now is       28.4 secs

     total energy              =    -281.21545116 Ry
     estimated scf accuracy    <       0.00000976 Ry

     iteration # 14     ecut=    75.00 Ry     beta= 0.70
     Davidson diagonalization with overlap
     ethr =  1.52E-08,  avg # of iterations =  2.1

     total cpu time spent up to now is       28.5 secs

     total energy              =    -281.21545150 Ry
     estimated scf accuracy    <       0.00000120 Ry

     iteration # 15     ecut=    75.00 Ry     beta= 0.70
     Davidson diagonalization with overlap
     ethr =  7.50E-09,  avg # of iterations =  7.0

     total cpu time spent up to now is       28.5 secs

     total energy              =    -281.21545070 Ry
     estimated scf accuracy    <       0.00001793 Ry

     iteration # 16     ecut=    75.00 Ry     beta= 0.70
     Davidson diagonalization with overlap
     ethr =  7.50E-09,  avg # of iterations =  4.1

     total cpu time spent up to now is       28.6 secs

     total energy              =    -281.21545155 Ry
     estimated scf accuracy    <       0.00000081 Ry

     iteration # 17     ecut=    75.00 Ry     beta= 0.70
     Davidson diagonalization with overlap
     ethr =  5.09E-09,  avg # of iterations =  1.6

     total cpu time spent up to now is       28.6 secs

     total energy              =    -281.21545159 Ry
     estimated scf accuracy    <       0.00000007 Ry

     iteration # 18     ecut=    75.00 Ry     beta= 0.70
     Davidson diagonalization with overlap
     ethr =  4.38E-10,  avg # of iterations =  6.0

     total cpu time spent up to now is       28.7 secs

     total energy              =    -281.21545168 Ry
     estimated scf accuracy    <       0.00000014 Ry

     iteration # 19     ecut=    75.00 Ry     beta= 0.70
     Davidson diagonalization with overlap
     ethr =  4.38E-10,  avg # of iterations =  1.1

     total cpu time spent up to now is       28.7 secs

     total energy              =    -281.21545168 Ry
     estimated scf accuracy    <       0.00000006 Ry

     iteration # 20     ecut=    75.00 Ry     beta= 0.70
     Davidson diagonalization with overlap
     ethr =  3.86E-10,  avg # of iterations =  1.0

     total cpu time spent up to now is       28.8 secs

     total energy              =    -281.21545167 Ry
     estimated scf accuracy    <       0.00000002 Ry

     iteration # 21     ecut=    75.00 Ry     beta= 0.70
     Davidson diagonalization with overlap
     ethr =  1.51E-10,  avg # of iterations =  1.1

     total cpu time spent up to now is       28.8 secs

     total energy              =    -281.21545168 Ry
     estimated scf accuracy    <       0.00000002 Ry

     iteration # 22     ecut=    75.00 Ry     beta= 0.70
     Davidson diagonalization with overlap
     ethr =  9.81E-11,  avg # of iterations =  1.0

     total cpu time spent up to now is       28.9 secs

     total energy              =    -281.21545167 Ry
     estimated scf accuracy    <       0.00000003 Ry

     iteration # 23     ecut=    75.00 Ry     beta= 0.70
     Davidson diagonalization with overlap
     ethr =  9.81E-11,  avg # of iterations =  2.8

     total cpu time spent up to now is       28.9 secs

     total energy              =    -281.21545167 Ry
     estimated scf accuracy    <          2.2E-09 Ry

     iteration # 24     ecut=    75.00 Ry     beta= 0.70
     Davidson diagonalization with overlap
     ethr =  1.36E-11,  avg # of iterations =  6.0

     total cpu time spent up to now is       29.0 secs

     total energy              =    -281.21545168 Ry
     estimated scf accuracy    <          3.8E-09 Ry

     iteration # 25     ecut=    75.00 Ry     beta= 0.70
     Davidson diagonalization with overlap
     ethr =  1.36E-11,  avg # of iterations =  1.0

     total cpu time spent up to now is       29.0 secs

     total energy              =    -281.21545168 Ry
     estimated scf accuracy    <          2.6E-09 Ry

     iteration # 26     ecut=    75.00 Ry     beta= 0.70
     Davidson diagonalization with overlap
     ethr =  1.36E-11,  avg # of iterations =  1.0

     total cpu time spent up to now is       29.1 secs

     total energy              =    -281.21545168 Ry
     estimated scf accuracy    <          2.2E-09 Ry

     iteration # 27     ecut=    75.00 Ry     beta= 0.70
     Davidson diagonalization with overlap
     ethr =  1.35E-11,  avg # of iterations =  1.0

     total cpu time spent up to now is       29.1 secs

     total energy              =    -281.21545168 Ry
     estimated scf accuracy    <          1.2E-09 Ry

     iteration # 28     ecut=    75.00 Ry     beta= 0.70
     Davidson diagonalization with overlap
     ethr =  7.80E-12,  avg # of iterations =  1.4

     total cpu time spent up to now is       29.2 secs

     total energy              =    -281.21545168 Ry
     estimated scf accuracy    <          1.9E-10 Ry

     iteration # 29     ecut=    75.00 Ry     beta= 0.70
     Davidson diagonalization with overlap
     ethr =  1.19E-12,  avg # of iterations =  5.7

     total cpu time spent up to now is       29.2 secs

     total energy              =    -281.21545168 Ry
     estimated scf accuracy    <          5.0E-10 Ry

     iteration # 30     ecut=    75.00 Ry     beta= 0.70
     Davidson diagonalization with overlap
     ethr =  1.19E-12,  avg # of iterations =  1.0

     total cpu time spent up to now is       29.3 secs

     total energy              =    -281.21545168 Ry
     estimated scf accuracy    <          3.5E-10 Ry

     iteration # 31     ecut=    75.00 Ry     beta= 0.70
     Davidson diagonalization with overlap
     ethr =  1.19E-12,  avg # of iterations =  1.2

     total cpu time spent up to now is       29.3 secs

     End of self-consistent calculation

          k = 0.0000 0.0000 0.0000 (  2001 PWs)   bands (ev):

    -7.5107  -7.4108  -7.1690  -7.1690  -7.1364  -5.1610   6.8212   9.8858
    10.8206  15.3997  16.2407  16.2407

          k = 0.0000 0.0000 0.2885 (  1993 PWs)   bands (ev):

    -7.5261  -7.4234  -7.1535  -7.1535  -7.1351  -3.6640   1.0114  10.3719
    13.1061  14.6885  14.6885  19.4485

          k =-0.0000 0.3366-0.1442 (  1982 PWs)   bands (ev):

    -7.4281  -7.3101  -7.2251  -7.1950  -7.1510  -2.7472   4.3748   5.8139
     9.0848  14.3392  17.6603  18.0911

          k =-0.0000 0.3366-0.4327 (  1976 PWs)   bands (ev):

    -7.4356  -7.3030  -7.2244  -7.2068  -7.1435  -0.3780   0.9803   3.1490
    11.5010  16.5151  18.4650  18.4733

          k = 0.1683-0.0000-0.0721 (  1986 PWs)   bands (ev):

    -7.4720  -7.3497  -7.2108  -7.1666  -7.1626  -4.5651   6.1430   9.1005
    10.8580  12.1930  16.5894  17.3166

          k = 0.1683 0.0000 0.2163 (  1991 PWs)   bands (ev):

    -7.4801  -7.3551  -7.2073  -7.1661  -7.1547  -3.8111   2.9944   8.0857
    11.6119  15.6412  15.8221  18.5267

          k = 0.1683-0.0000-0.3606 (  1993 PWs)   bands (ev):

    -7.4881  -7.3597  -7.2044  -7.1650  -7.1475  -2.3831   0.1929   7.4896
    11.7932  14.9968  17.9357  21.0613

          k = 0.1683 0.3366-0.2163 (  1973 PWs)   bands (ev):

    -7.3469  -7.3042  -7.2947  -7.1926  -7.1814  -1.7582   4.1985   4.9440
     9.3059  12.7088  16.1138  17.6433

          k = 0.1683 0.3366 0.0721 (  1971 PWs)   bands (ev):

    -7.3410  -7.2962  -7.2946  -7.1980  -7.1876  -2.4994   5.5152   6.8879
     9.0674  12.1597  13.9776  16.1512

          k = 0.1683 0.3366-0.5048 (  1988 PWs)   bands (ev):

    -7.3524  -7.3042  -7.2959  -7.1861  -7.1829  -0.3771   2.1636   3.6925
     9.2795  14.8643  17.4182  18.7492

          k = 0.3366 0.3366-0.2885 (  1979 PWs)   bands (ev):

    -7.4316  -7.3054  -7.2528  -7.1740  -7.1641   0.4248   4.6307   4.6870
     6.4808  13.1863  13.3592  15.5712

          k = 0.3366 0.3366-0.0000 (  1960 PWs)   bands (ev):

    -7.4311  -7.3055  -7.2448  -7.1849  -7.1584  -1.0396   6.7876   6.8630
     8.8128  10.0247  11.3784  13.9225

          k =-0.5049 0.0000 0.2163 (  1958 PWs)   bands (ev):

    -7.4105  -7.3547  -7.2543  -7.1451  -7.1224  -0.1066   0.7426   5.6572
     8.2158  15.4237  18.7424  19.8116

          k =-0.5049 0.0000 0.5048 (  1972 PWs)   bands (ev):

    -7.4104  -7.3467  -7.2541  -7.1453  -7.1312  -0.4952   1.7583   4.0446
     9.8818  15.1148  18.6605  18.6719

          k =-0.5049 0.3366 0.0721 (  1977 PWs)   bands (ev):

    -7.4908  -7.3360  -7.2497  -7.1683  -7.0814   1.5459   3.7259   5.6854
     7.6462  10.5719  12.4880  13.8031

          k =-0.5049 0.3366-0.2163 (  1982 PWs)   bands (ev):

    -7.4899  -7.3198  -7.2688  -7.1682  -7.0804   2.0755   2.5592   6.5943
     8.2845  10.2117  10.9739  14.6492

     the Fermi energy is     7.4991 ev

!    total energy              =    -281.21545168 Ry
     estimated scf accuracy    <          4.4E-11 Ry
     smearing contrib. (-TS)   =      -0.00006101 Ry
     internal energy E=F+TS    =    -281.21539066 Ry

     The total energy is F=E-TS. E is the sum of the following terms:
     one-electron contribution =     -99.63422920 Ry
     hartree contribution      =      64.93066826 Ry
     xc contribution           =     -40.29399631 Ry
     ewald contribution        =     -94.71303588 Ry
     one-center paw contrib.   =    -111.50479754 Ry

     convergence has been achieved in  31 iterations

     Forces acting on atoms (cartesian axes, Ry/au):

     atom    1 type  2   force =     0.00000000    0.00000000    0.00000000
     atom    2 type  1   force =    -0.00000000   -0.00000000   -0.00000000
     atom    3 type  1   force =     0.00000000    0.00000000    0.00000000
     atom    4 type  1   force =     0.00000000    0.00000000    0.00000000

     Total force =     0.000000     Total SCF correction =     0.000000


     Computing stress (Cartesian axis) and pressure

          total   stress  (Ry/bohr**3)                   (kbar)     P=        0.30
   0.00000100  -0.00000000  -0.00000000            0.15       -0.00       -0.00
  -0.00000000   0.00000100  -0.00000000           -0.00        0.15       -0.00
  -0.00000000  -0.00000000   0.00000415           -0.00       -0.00        0.61


     Writing all to output data dir ./gah3.save/
 
     init_run     :      0.30s CPU      0.43s WALL (       2 calls)
     electrons    :     21.91s CPU     23.70s WALL (      20 calls)
     update_pot   :      1.82s CPU      1.94s WALL (      18 calls)
     forces       :      0.55s CPU      0.61s WALL (      20 calls)
     stress       :      1.14s CPU      1.24s WALL (      20 calls)

     Called by init_run:
     wfcinit      :      0.01s CPU      0.05s WALL (       2 calls)
     potinit      :      0.11s CPU      0.12s WALL (       2 calls)
     hinit0       :      0.11s CPU      0.16s WALL (       2 calls)

     Called by electrons:
     c_bands      :      4.41s CPU      4.97s WALL (     336 calls)
     sum_band     :      2.43s CPU      2.53s WALL (     336 calls)
     v_of_rho     :      0.73s CPU      0.75s WALL (     343 calls)
     newd         :      0.47s CPU      0.50s WALL (     343 calls)
     PAW_pot      :     14.13s CPU     14.48s WALL (     361 calls)
     mix_rho      :      0.20s CPU      0.21s WALL (     336 calls)

     Called by c_bands:
     init_us_2    :      0.06s CPU      0.07s WALL (    1464 calls)
     init_us_2:cp :      0.06s CPU      0.06s WALL (    1464 calls)
     cegterg      :      2.78s CPU      2.96s WALL (     674 calls)

     Called by *egterg:
     cdiaghg      :      0.44s CPU      0.48s WALL (    2708 calls)
     h_psi        :      2.07s CPU      2.22s WALL (    2776 calls)
     s_psi        :      0.03s CPU      0.03s WALL (    2776 calls)
     g_psi        :      0.01s CPU      0.01s WALL (    2098 calls)

     Called by h_psi:
     h_psi:calbec :      0.08s CPU      0.10s WALL (    2776 calls)
     vloc_psi     :      1.93s CPU      2.06s WALL (    2776 calls)
     add_vuspsi   :      0.03s CPU      0.04s WALL (    2776 calls)

     General routines
     calbec       :      0.10s CPU      0.12s WALL (    3684 calls)
     fft          :      0.51s CPU      0.54s WALL (    4950 calls)
     ffts         :      0.17s CPU      0.17s WALL (     679 calls)
     fftw         :      2.23s CPU      2.35s WALL (   52290 calls)
     interpolate  :      0.09s CPU      0.09s WALL (     343 calls)
 
     Parallel routines
 
     PWSCF        :     26.92s CPU     29.48s WALL

 
   This run was terminated on:  12:22:49   1Dec2023            

=------------------------------------------------------------------------------=
   JOB DONE.
=------------------------------------------------------------------------------=
Job execution finished at: Fri Dec  1 12:22:49 IST 2023
