==========================================
SLURM_CLUSTER_NAME = paramganga
SLURM_ARRAY_JOB_ID = 
SLURM_ARRAY_TASK_ID = 
SLURM_ARRAY_TASK_COUNT = 
SLURM_ARRAY_TASK_MAX = 
SLURM_ARRAY_TASK_MIN = 
SLURM_JOB_ACCOUNT = iitr
SLURM_JOB_ID = 174843
SLURM_JOB_NAME = 19280
SLURM_JOB_NODELIST = cn[214-216]
SLURM_JOB_USER = garima.iitr
SLURM_JOB_UID = 38339
SLURM_JOB_PARTITION = small
SLURM_TASK_PID = 15305
SLURM_SUBMIT_DIR = /home/garima.iitr/.cache/.es/compmat/gah3
SLURM_CPUS_ON_NODE = 48
SLURM_NTASKS = 144
SLURM_TASK_PID = 15305
==========================================
cn214
 
:: initializing oneAPI environment ...
   slurm_script: BASH_VERSION = 4.2.46(2)-release
   args: Using "$@" for setvars.sh arguments: 
:: advisor -- latest
:: ccl -- latest
:: clck -- latest
:: compiler -- latest
:: dal -- latest
:: debugger -- latest
:: dev-utilities -- latest
:: dnnl -- latest
:: dpcpp-ct -- latest
:: dpl -- latest
:: inspector -- latest
:: intelpython -- latest
:: ipp -- latest
:: ippcp -- latest
:: ipp -- latest
:: itac -- latest
:: mkl -- latest
:: mpi -- latest
:: tbb -- latest
:: vpl -- latest
:: vtune -- latest
:: oneAPI environment initialized ::
 
Job execution start: Fri Dec  1 09:19:38 IST 2023
Job submitted by garima.iitr
The job ID is:174843

     Program PWSCF v.7.1 starts on  1Dec2023 at  9:19:41 

     This program is part of the open-source Quantum ESPRESSO suite
     for quantum simulation of materials; please cite
         "P. Giannozzi et al., J. Phys.:Condens. Matter 21 395502 (2009);
         "P. Giannozzi et al., J. Phys.:Condens. Matter 29 465901 (2017);
         "P. Giannozzi et al., J. Chem. Phys. 152 154105 (2020);
          URL http://www.quantum-espresso.org", 
     in publications or presentations arising from this work. More details at
     http://www.quantum-espresso.org/quote

     Parallel version (MPI & OpenMP), running on     144 processor cores
     Number of MPI processes:               144
     Threads/MPI process:                     1

     MPI processes distributed on     3 nodes
     169768 MiB available memory on the printing compute node when the environment starts
 
     Reading input from gah3.in

     Current dimensions of program PWSCF are:
     Max number of different atomic species (ntypx) = 10
     Max number of k-points (npk) =  40000
     Max angular momentum in pseudopotentials (lmaxx) =  4
     file Ga.pbe-dn-kjpaw_psl.1.0.0.UPF: wavefunction(s)  4S renormalized

     IMPORTANT: XC functional enforced from input :
     Exchange-correlation= PBE
                           (   1   4   3   4   0   0   0)
     Any further DFT definition will be discarded
     Please, verify this is what you really want

     Message from routine setup:
     using ibrav=0 with symmetry is DISCOURAGED, use correct ibrav instead
 
     K-points division:     npool     =       8
     R & G space division:  proc/nbgrp/npool/nimage =      18
     Subspace diagonalization in iterative solution of the eigenvalue problem:
     a serial algorithm will be used

 
     Parallelization info
     --------------------
     sticks:   dense  smooth     PW     G-vecs:    dense   smooth      PW
     Min          48      38     11                 1226      870     141
     Max          49      39     12                 1230      874     145
     Sum         877     697    213                22113    15701    2591
 
     Using Slab Decomposition
 


     bravais-lattice index     =            0
     lattice parameter (alat)  =       5.4188  a.u.
     unit-cell volume          =     179.6737 (a.u.)^3
     number of atoms/cell      =            4
     number of atomic types    =            2
     number of electrons       =        16.00
     number of Kohn-Sham states=           12
     kinetic-energy cutoff     =      75.0000  Ry
     charge density cutoff     =     375.0000  Ry
     scf convergence threshold =      1.0E-08
     mixing beta               =       0.7000
     number of iterations used =            8  plain     mixing
     energy convergence thresh.=      1.0E-04
     force convergence thresh. =      1.0E-03
     Exchange-correlation= PBE
                           (   1   4   3   4   0   0   0)
     nstep                     =           50


     celldm(1)=   5.418809  celldm(2)=   0.000000  celldm(3)=   0.000000
     celldm(4)=   0.000000  celldm(5)=   0.000000  celldm(6)=   0.000000

     crystal axes: (cart. coord. in units of alat)
               a(1) = (   1.000000   0.000000   0.000000 )  
               a(2) = (   0.000000   1.000000   0.000000 )  
               a(3) = (   0.500000   0.500000   1.129206 )  

     reciprocal axes: (cart. coord. in units 2 pi/alat)
               b(1) = (  1.000000  0.000000 -0.442789 )  
               b(2) = (  0.000000  1.000000 -0.442789 )  
               b(3) = (  0.000000  0.000000  0.885578 )  


     PseudoPot. # 1 for H  read from file:
     /home/garima.iitr/.cache/.es/compmat/gah3/H.pbe-rrkjus_psl.1.0.0.UPF
     MD5 check sum: 3f4114867bd07edc7f1424d066fc1888
     Pseudo is Ultrasoft, Zval =  1.0
     Generated using &quot;atomic&quot; code by A. Dal Corso  v.6.3MaX
     Using radial grid of  929 points,  2 beta functions with: 
                l(1) =   0
                l(2) =   0
     Q(r) pseudized with 0 coefficients 


     PseudoPot. # 2 for Ga read from file:
     /home/garima.iitr/.cache/.es/compmat/gah3/Ga.pbe-dn-kjpaw_psl.1.0.0.UPF
     MD5 check sum: 50ce49cbf7e0a40ad8623bf41840a268
     Pseudo is Projector augmented-wave + core cor, Zval = 13.0
     Generated using &quot;atomic&quot; code by A. Dal Corso  v.6.3
     Shape of augmentation charge: PSQ
     Using radial grid of 1205 points,  6 beta functions with: 
                l(1) =   0
                l(2) =   0
                l(3) =   1
                l(4) =   1
                l(5) =   2
                l(6) =   2
     Q(r) pseudized with 0 coefficients 


     atomic species   valence    mass     pseudopotential
        H              1.00     1.00750     H ( 1.00)
        Ga            13.00    69.72300     Ga( 1.00)

     16 Sym. Ops., with inversion, found



   Cartesian axes

     site n.     atom                  positions (alat units)
         1           Ga  tau(   1) = (   0.0000000   0.0000000   0.0000000  )
         2           H   tau(   2) = (   1.0000000   0.5000000   0.5646028  )
         3           H   tau(   3) = (   0.5000000   1.0000000   0.5646028  )
         4           H   tau(   4) = (   0.5000000   0.5000000   0.0000000  )

     number of k points=    16  Marzari-Vanderbilt smearing, width (Ry)=  0.0050
                       cart. coord. in units 2pi/alat
        k(    1) = (   0.0000000   0.0000000   0.0000000), wk =   0.0370370
        k(    2) = (   0.0000000   0.0000000   0.2951928), wk =   0.0740741
        k(    3) = (   0.0000000   0.3333333  -0.1475964), wk =   0.2962963
        k(    4) = (   0.0000000   0.3333333  -0.4427891), wk =   0.1481481
        k(    5) = (   0.1666667   0.0000000  -0.0737982), wk =   0.0740741
        k(    6) = (   0.1666667   0.0000000   0.2213946), wk =   0.0740741
        k(    7) = (   0.1666667   0.0000000  -0.3689909), wk =   0.0740741
        k(    8) = (   0.1666667   0.3333333  -0.2213946), wk =   0.1481481
        k(    9) = (   0.1666667   0.3333333   0.0737982), wk =   0.1481481
        k(   10) = (   0.1666667   0.3333333  -0.5165873), wk =   0.1481481
        k(   11) = (   0.3333333   0.3333333  -0.2951928), wk =   0.2962963
        k(   12) = (   0.3333333   0.3333333   0.0000000), wk =   0.1481481
        k(   13) = (  -0.5000000   0.0000000   0.2213946), wk =   0.0370370
        k(   14) = (  -0.5000000   0.0000000   0.5165873), wk =   0.0740741
        k(   15) = (  -0.5000000   0.3333333   0.0737982), wk =   0.1481481
        k(   16) = (  -0.5000000   0.3333333  -0.2213946), wk =   0.0740741

     Dense  grid:    22113 G-vectors     FFT dimensions: (  36,  36,  45)

     Smooth grid:    15701 G-vectors     FFT dimensions: (  30,  30,  40)

     Estimated max dynamical RAM per process >       4.50 MB

     Estimated total dynamical RAM >     609.97 MB

     Initial potential from superposition of free atoms

     starting charge      15.9970, renormalised to      16.0000
     Starting wfcs are   12 randomized atomic wfcs
     Checking if some PAW data can be deallocated... 

     total cpu time spent up to now is        0.5 secs

     Self-consistent Calculation

     iteration #  1     ecut=    75.00 Ry     beta= 0.70
     Davidson diagonalization with overlap
     ethr =  1.00E-02,  avg # of iterations =  3.9

     Threshold (ethr) on eigenvalues was too large:
     Diagonalizing with lowered threshold

     Davidson diagonalization with overlap
     ethr =  5.57E-04,  avg # of iterations =  5.4

     total cpu time spent up to now is        0.7 secs

     total energy              =    -281.18788043 Ry
     estimated scf accuracy    <       0.08534431 Ry

     iteration #  2     ecut=    75.00 Ry     beta= 0.70
     Davidson diagonalization with overlap
     ethr =  5.33E-04,  avg # of iterations =  2.8

     total cpu time spent up to now is        0.7 secs

     total energy              =    -281.20910485 Ry
     estimated scf accuracy    <       0.00676258 Ry

     iteration #  3     ecut=    75.00 Ry     beta= 0.70
     Davidson diagonalization with overlap
     ethr =  4.23E-05,  avg # of iterations =  6.9

     total cpu time spent up to now is        0.8 secs

     total energy              =    -281.21409135 Ry
     estimated scf accuracy    <       0.00215702 Ry

     iteration #  4     ecut=    75.00 Ry     beta= 0.70
     Davidson diagonalization with overlap
     ethr =  1.35E-05,  avg # of iterations =  3.2

     total cpu time spent up to now is        0.8 secs

     total energy              =    -281.21430816 Ry
     estimated scf accuracy    <       0.00025487 Ry

     iteration #  5     ecut=    75.00 Ry     beta= 0.70
     Davidson diagonalization with overlap
     ethr =  1.59E-06,  avg # of iterations =  5.9

     total cpu time spent up to now is        0.9 secs

     total energy              =    -281.21442087 Ry
     estimated scf accuracy    <       0.00001703 Ry

     iteration #  6     ecut=    75.00 Ry     beta= 0.70
     Davidson diagonalization with overlap
     ethr =  1.06E-07,  avg # of iterations =  5.6

     total cpu time spent up to now is        1.0 secs

     total energy              =    -281.21443793 Ry
     estimated scf accuracy    <       0.00002594 Ry

     iteration #  7     ecut=    75.00 Ry     beta= 0.70
     Davidson diagonalization with overlap
     ethr =  1.06E-07,  avg # of iterations =  1.1

     total cpu time spent up to now is        1.0 secs

     total energy              =    -281.21443873 Ry
     estimated scf accuracy    <       0.00000114 Ry

     iteration #  8     ecut=    75.00 Ry     beta= 0.70
     Davidson diagonalization with overlap
     ethr =  7.13E-09,  avg # of iterations =  6.6

     total cpu time spent up to now is        1.1 secs

     total energy              =    -281.21444037 Ry
     estimated scf accuracy    <       0.00000081 Ry

     iteration #  9     ecut=    75.00 Ry     beta= 0.70
     Davidson diagonalization with overlap
     ethr =  5.04E-09,  avg # of iterations =  1.1

     total cpu time spent up to now is        1.1 secs

     total energy              =    -281.21444019 Ry
     estimated scf accuracy    <       0.00000058 Ry

     iteration # 10     ecut=    75.00 Ry     beta= 0.70
     Davidson diagonalization with overlap
     ethr =  3.64E-09,  avg # of iterations =  1.2

     total cpu time spent up to now is        1.2 secs

     total energy              =    -281.21444019 Ry
     estimated scf accuracy    <       0.00000008 Ry

     iteration # 11     ecut=    75.00 Ry     beta= 0.70
     Davidson diagonalization with overlap
     ethr =  5.09E-10,  avg # of iterations =  5.8

     total cpu time spent up to now is        1.2 secs

     total energy              =    -281.21444028 Ry
     estimated scf accuracy    <       0.00000012 Ry

     iteration # 12     ecut=    75.00 Ry     beta= 0.70
     Davidson diagonalization with overlap
     ethr =  5.09E-10,  avg # of iterations =  1.0

     total cpu time spent up to now is        1.3 secs

     total energy              =    -281.21444026 Ry
     estimated scf accuracy    <       0.00000005 Ry

     iteration # 13     ecut=    75.00 Ry     beta= 0.70
     Davidson diagonalization with overlap
     ethr =  3.13E-10,  avg # of iterations =  2.9

     total cpu time spent up to now is        1.3 secs

     End of self-consistent calculation

          k = 0.0000 0.0000 0.0000 (  1985 PWs)   bands (ev):

    -7.4347  -7.3349  -7.1220  -7.1220  -7.0856  -5.1335   7.3880  10.4261
    10.5915  15.3699  16.1603  16.1603

          k = 0.0000 0.0000 0.2952 (  1993 PWs)   bands (ev):

    -7.4537  -7.3496  -7.1032  -7.1032  -7.0838  -3.5511   1.2815  10.0926
    12.9436  14.4355  14.4355  20.3219

          k = 0.0000 0.3333-0.1476 (  1965 PWs)   bands (ev):

    -7.3575  -7.2582  -7.1679  -7.1391  -7.1029  -2.7295   4.3631   6.0966
     9.2385  14.5798  17.4198  18.2914

          k = 0.0000 0.3333-0.4428 (  1966 PWs)   bands (ev):

    -7.3667  -7.2476  -7.1669  -7.1547  -7.0938  -0.1241   1.0138   3.0078
    11.5047  16.1823  18.6424  18.8224

          k = 0.1667 0.0000-0.0738 (  1976 PWs)   bands (ev):

    -7.3982  -7.2818  -7.1611  -7.1165  -7.1123  -4.5391   6.6194   8.9704
    10.9802  12.6241  16.4590  17.2714

          k = 0.1667 0.0000 0.2214 (  1980 PWs)   bands (ev):

    -7.4082  -7.2884  -7.1558  -7.1137  -7.1049  -3.7432   3.3338   7.8956
    11.5233  15.4073  16.1473  18.9423

          k = 0.1667 0.0000-0.3690 (  1987 PWs)   bands (ev):

    -7.4179  -7.2938  -7.1517  -7.1116  -7.0967  -2.2105   0.3639   7.2674
    11.6101  14.7093  17.8390  21.3008

          k = 0.1667 0.3333-0.2214 (  1976 PWs)   bands (ev):

    -7.2821  -7.2521  -7.2318  -7.1420  -7.1273  -1.7247   4.1698   5.1491
     9.2758  12.7831  16.0068  17.7186

          k = 0.1667 0.3333 0.0738 (  1964 PWs)   bands (ev):

    -7.2752  -7.2426  -7.2332  -7.1472  -7.1346  -2.5103   5.5480   6.9918
     9.3592  12.2067  14.1740  16.1017

          k = 0.1667 0.3333-0.5166 (  1976 PWs)   bands (ev):

    -7.2886  -7.2511  -7.2336  -7.1342  -7.1297  -0.2345   2.2930   3.5460
     9.1238  15.1203  17.2909  18.8710

          k = 0.3333 0.3333-0.2952 (  1982 PWs)   bands (ev):

    -7.3573  -7.2549  -7.1975  -7.1219  -7.1119   0.4668   4.4613   4.8568
     6.3777  13.0156  13.6757  15.6654

          k = 0.3333 0.3333 0.0000 (  1960 PWs)   bands (ev):

    -7.3568  -7.2579  -7.1864  -7.1330  -7.1055  -1.0904   6.7790   6.9033
     8.9023  10.0322  11.3418  14.1546

          k =-0.5000 0.0000 0.2214 (  1954 PWs)   bands (ev):

    -7.3419  -7.3010  -7.1950  -7.0966  -7.0724  -0.0721   0.6897   5.8834
     8.4834  15.3653  18.3992  19.6001

          k =-0.5000 0.0000 0.5166 (  1969 PWs)   bands (ev):

    -7.3416  -7.2912  -7.1947  -7.0969  -7.0833  -0.5255   1.8313   4.1400
    10.2085  15.3490  18.3164  18.8102

          k =-0.5000 0.3333 0.0738 (  1961 PWs)   bands (ev):

    -7.4121  -7.2860  -7.1921  -7.1168  -7.0349   1.4529   3.7554   5.7429
     7.5141  10.5259  12.5603  14.0910

          k =-0.5000 0.3333-0.2214 (  1964 PWs)   bands (ev):

    -7.4107  -7.2658  -7.2160  -7.1168  -7.0336   2.0493   2.4694   6.6494
     8.2081  10.2591  11.1187  14.7623

     the Fermi energy is     7.3266 ev

!    total energy              =    -281.21444027 Ry
     estimated scf accuracy    <          5.2E-10 Ry
     smearing contrib. (-TS)   =       0.00001447 Ry
     internal energy E=F+TS    =    -281.21445474 Ry

     The total energy is F=E-TS. E is the sum of the following terms:
     one-electron contribution =     -98.85684606 Ry
     hartree contribution      =      64.56334093 Ry
     xc contribution           =     -40.29299777 Ry
     ewald contribution        =     -95.13248060 Ry
     one-center paw contrib.   =    -111.49547124 Ry

     convergence has been achieved in  13 iterations

     Forces acting on atoms (cartesian axes, Ry/au):

     atom    1 type  2   force =     0.00000000    0.00000000    0.00000000
     atom    2 type  1   force =     0.00000000    0.00000000    0.00000000
     atom    3 type  1   force =     0.00000000    0.00000000    0.00000000
     atom    4 type  1   force =     0.00000000    0.00000000    0.00000000

     Total force =     0.000000     Total SCF correction =     0.000000


     Computing stress (Cartesian axis) and pressure

          total   stress  (Ry/bohr**3)                   (kbar)     P=       -1.86
  -0.00005043   0.00000000  -0.00000000           -7.42        0.00       -0.00
   0.00000000  -0.00005043   0.00000000            0.00       -7.42        0.00
   0.00000000   0.00000000   0.00006295            0.00        0.00        9.26


     BFGS Geometry Optimization
     Energy error            =      0.0E+00 Ry
     Gradient error          =      1.7E-31 Ry/Bohr

     bfgs converged in   1 scf cycles and   0 bfgs steps
     (criteria: energy <  1.0E-04 Ry, force <  1.0E-03 Ry/Bohr)

     End of BFGS Geometry Optimization

     Final energy             =    -281.2144402725 Ry
Begin final coordinates

ATOMIC_POSITIONS (crystal)
Ga            0.0000000000        0.0000000000        0.0000000000
H             0.7500000000        0.2500000000        0.5000000000
H             0.2500000000        0.7500000000        0.5000000000
H             0.5000000000        0.5000000000        0.0000000000
End final coordinates



     Writing all to output data dir ./gah3.save/
 
     init_run     :      0.14s CPU      0.25s WALL (       1 calls)
     electrons    :      0.74s CPU      0.79s WALL (       1 calls)
     forces       :      0.01s CPU      0.02s WALL (       1 calls)
     stress       :      0.03s CPU      0.03s WALL (       1 calls)

     Called by init_run:
     wfcinit      :      0.01s CPU      0.03s WALL (       1 calls)
     potinit      :      0.05s CPU      0.07s WALL (       1 calls)
     hinit0       :      0.03s CPU      0.07s WALL (       1 calls)

     Called by electrons:
     c_bands      :      0.16s CPU      0.17s WALL (      14 calls)
     sum_band     :      0.11s CPU      0.12s WALL (      14 calls)
     v_of_rho     :      0.02s CPU      0.03s WALL (      14 calls)
     newd         :      0.01s CPU      0.02s WALL (      14 calls)
     PAW_pot      :      0.44s CPU      0.45s WALL (      14 calls)
     mix_rho      :      0.01s CPU      0.01s WALL (      14 calls)

     Called by c_bands:
     init_us_2    :      0.00s CPU      0.00s WALL (      62 calls)
     init_us_2:cp :      0.00s CPU      0.00s WALL (      62 calls)
     cegterg      :      0.11s CPU      0.12s WALL (      28 calls)

     Called by *egterg:
     cdiaghg      :      0.02s CPU      0.04s WALL (     126 calls)
     h_psi        :      0.08s CPU      0.10s WALL (     130 calls)
     s_psi        :      0.00s CPU      0.00s WALL (     130 calls)
     g_psi        :      0.00s CPU      0.00s WALL (     100 calls)

     Called by h_psi:
     h_psi:calbec :      0.00s CPU      0.01s WALL (     130 calls)
     vloc_psi     :      0.07s CPU      0.08s WALL (     130 calls)
     add_vuspsi   :      0.00s CPU      0.01s WALL (     130 calls)

     General routines
     calbec       :      0.00s CPU      0.01s WALL (     168 calls)
     fft          :      0.01s CPU      0.04s WALL (     206 calls)
     ffts         :      0.01s CPU      0.02s WALL (      28 calls)
     fftw         :      0.08s CPU      0.08s WALL (    2144 calls)
     interpolate  :      0.00s CPU      0.01s WALL (      14 calls)
 
     Parallel routines
 
     PWSCF        :      1.11s CPU      1.40s WALL

 
   This run was terminated on:   9:19:43   1Dec2023            

=------------------------------------------------------------------------------=
   JOB DONE.
=------------------------------------------------------------------------------=
Job execution finished at: Fri Dec  1 09:19:43 IST 2023
