
     Program PWSCF v.6.7MaX starts on 28Nov2023 at 19:37: 2 

     This program is part of the open-source Quantum ESPRESSO suite
     for quantum simulation of materials; please cite
         "P. Giannozzi et al., J. Phys.:Condens. Matter 21 395502 (2009);
         "P. Giannozzi et al., J. Phys.:Condens. Matter 29 465901 (2017);
          URL http://www.quantum-espresso.org", 
     in publications or presentations arising from this work. More details at
     http://www.quantum-espresso.org/quote

     Parallel version (MPI), running on     1 processors

     MPI processes distributed on     1 nodes
     Reading input from BH3_sym.in

     Current dimensions of program PWSCF are:
     Max number of different atomic species (ntypx) = 10
     Max number of k-points (npk) =  40000
     Max angular momentum in pseudopotentials (lmaxx) =  3

     IMPORTANT: XC functional enforced from input :
     Exchange-correlation= PBE
                           (   1   4   3   4   0   0   0)
     Any further DFT definition will be discarded
     Please, verify this is what you really want


     Subspace diagonalization in iterative solution of the eigenvalue problem:
     a serial algorithm will be used

     Message from routine setup:
     using ibrav=0 with symmetry is DISCOURAGED, use correct ibrav instead

     G-vector sticks info
     --------------------
     sticks:   dense  smooth     PW     G-vecs:    dense   smooth      PW
     Sum        2821    2273    633               121635    87073   12857



     bravais-lattice index     =            0
     lattice parameter (alat)  =       8.1081  a.u.
     unit-cell volume          =     992.9145 (a.u.)^3
     number of atoms/cell      =           16
     number of atomic types    =            2
     number of electrons       =        24.00
     number of Kohn-Sham states=           16
     kinetic-energy cutoff     =      75.0000  Ry
     charge density cutoff     =     375.0000  Ry
     scf convergence threshold =      1.0E-08
     mixing beta               =       0.7000
     number of iterations used =            8  plain     mixing
     Exchange-correlation= PBE
                           (   1   4   3   4   0   0   0)

     celldm(1)=   8.108059  celldm(2)=   0.000000  celldm(3)=   0.000000
     celldm(4)=   0.000000  celldm(5)=   0.000000  celldm(6)=   0.000000

     crystal axes: (cart. coord. in units of alat)
               a(1) = (   1.000000   0.000000   0.000000 )  
               a(2) = (   0.000000   1.442472   0.000000 )  
               a(3) = (  -0.644894   0.000000   1.291379 )  

     reciprocal axes: (cart. coord. in units 2 pi/alat)
               b(1) = (  1.000000 -0.000000  0.499384 )  
               b(2) = (  0.000000  0.693254 -0.000000 )  
               b(3) = (  0.000000  0.000000  0.774366 )  


     PseudoPot. # 1 for B  read from file:
     ../../pseudopotentials/b_pbe_v1.4.uspp.F.UPF
     MD5 check sum: cc6de2960df11db49a60e589f9ebb39b
     Pseudo is Ultrasoft + core correction, Zval =  3.0
     Generated by new atomic code, or converted to UPF format
     Using radial grid of  781 points,  4 beta functions with: 
                l(1) =   0
                l(2) =   0
                l(3) =   1
                l(4) =   1
     Q(r) pseudized with  8 coefficients,  rinner =    1.100   1.100   1.100


     PseudoPot. # 2 for H  read from file:
     ../../pseudopotentials/H.pbe-rrkjus_psl.1.0.0.UPF
     MD5 check sum: f52b6d4d1c606e5624b1dc7b2218f220
     Pseudo is Ultrasoft, Zval =  1.0
     Generated using "atomic" code by A. Dal Corso  v.5.1
     Using radial grid of  929 points,  2 beta functions with: 
                l(1) =   0
                l(2) =   0
     Q(r) pseudized with 0 coefficients 


     atomic species   valence    mass     pseudopotential
        B              3.00    10.81350     B ( 1.00)
        H              1.00     1.00750     H ( 1.00)

      4 Sym. Ops., with inversion, found ( 2 have fractional translation)



   Cartesian axes

     site n.     atom                  positions (alat units)
         1           B   tau(   1) = (  -0.2732280   0.7844302   0.8324538  )
         2           B   tau(   2) = (   0.6283342   0.6580415   0.4589256  )
         3           B   tau(   3) = (   0.3058873   0.0631944   1.1046154  )
         4           B   tau(   4) = (   0.0492189   1.3792774   0.1867641  )
         5           H   tau(   5) = (  -0.1123443   0.0068599   0.4008051  )
         6           H   tau(   6) = (   0.4674505   1.4356118   0.8905744  )
         7           H   tau(   7) = (   0.7898974   0.7280958   0.2448847  )
         8           H   tau(   8) = (  -0.4347912   0.7143759   1.0464948  )
         9           H   tau(   9) = (   0.1256089   0.1895213   0.0310581  )
        10           H   tau(  10) = (   0.2294973   1.2529504   1.2603213  )
        11           H   tau(  11) = (   0.5519442   0.9107572   0.6146316  )
        12           H   tau(  12) = (  -0.1968380   0.5317145   0.6767478  )
        13           H   tau(  13) = (  -0.0461572   0.9393059   0.8669348  )
        14           H   tau(  14) = (   0.4012634   0.5031658   0.4244446  )
        15           H   tau(  15) = (   0.0788165   0.2180701   1.0701343  )
        16           H   tau(  16) = (   0.2762897   1.2244016   0.2212451  )

     number of k points=    48  Marzari-Vanderbilt smearing, width (Ry)=  0.0050
                       cart. coord. in units 2pi/alat
        k(    1) = (   0.0000000   0.0000000   0.0000000), wk =   0.0133333
        k(    2) = (   0.0000000   0.0000000   0.1548731), wk =   0.0266667
        k(    3) = (   0.0000000   0.0000000   0.3097463), wk =   0.0266667
        k(    4) = (   0.0000000   0.1386509   0.0000000), wk =   0.0266667
        k(    5) = (   0.0000000   0.1386509   0.1548731), wk =   0.0533333
        k(    6) = (   0.0000000   0.1386509   0.3097463), wk =   0.0533333
        k(    7) = (   0.0000000   0.2773018   0.0000000), wk =   0.0266667
        k(    8) = (   0.0000000   0.2773018   0.1548731), wk =   0.0533333
        k(    9) = (   0.0000000   0.2773018   0.3097463), wk =   0.0533333
        k(   10) = (   0.1666667   0.0000000   0.0832306), wk =   0.0266667
        k(   11) = (   0.1666667   0.0000000   0.2381038), wk =   0.0266667
        k(   12) = (   0.1666667   0.0000000   0.3929769), wk =   0.0266667
        k(   13) = (   0.1666667   0.0000000  -0.2265157), wk =   0.0266667
        k(   14) = (   0.1666667   0.0000000  -0.0716425), wk =   0.0266667
        k(   15) = (   0.1666667   0.1386509   0.0832306), wk =   0.0533333
        k(   16) = (   0.1666667   0.1386509   0.2381038), wk =   0.0533333
        k(   17) = (   0.1666667   0.1386509   0.3929769), wk =   0.0533333
        k(   18) = (   0.1666667   0.1386509  -0.2265157), wk =   0.0533333
        k(   19) = (   0.1666667   0.1386509  -0.0716425), wk =   0.0533333
        k(   20) = (   0.1666667   0.2773018   0.0832306), wk =   0.0533333
        k(   21) = (   0.1666667   0.2773018   0.2381038), wk =   0.0533333
        k(   22) = (   0.1666667   0.2773018   0.3929769), wk =   0.0533333
        k(   23) = (   0.1666667   0.2773018  -0.2265157), wk =   0.0533333
        k(   24) = (   0.1666667   0.2773018  -0.0716425), wk =   0.0533333
        k(   25) = (   0.3333333   0.0000000   0.1664612), wk =   0.0266667
        k(   26) = (   0.3333333   0.0000000   0.3213344), wk =   0.0266667
        k(   27) = (   0.3333333   0.0000000   0.4762075), wk =   0.0266667
        k(   28) = (   0.3333333   0.0000000  -0.1432851), wk =   0.0266667
        k(   29) = (   0.3333333   0.0000000   0.0115881), wk =   0.0266667
        k(   30) = (   0.3333333   0.1386509   0.1664612), wk =   0.0533333
        k(   31) = (   0.3333333   0.1386509   0.3213344), wk =   0.0533333
        k(   32) = (   0.3333333   0.1386509   0.4762075), wk =   0.0533333
        k(   33) = (   0.3333333   0.1386509  -0.1432851), wk =   0.0533333
        k(   34) = (   0.3333333   0.1386509   0.0115881), wk =   0.0533333
        k(   35) = (   0.3333333   0.2773018   0.1664612), wk =   0.0533333
        k(   36) = (   0.3333333   0.2773018   0.3213344), wk =   0.0533333
        k(   37) = (   0.3333333   0.2773018   0.4762075), wk =   0.0533333
        k(   38) = (   0.3333333   0.2773018  -0.1432851), wk =   0.0533333
        k(   39) = (   0.3333333   0.2773018   0.0115881), wk =   0.0533333
        k(   40) = (  -0.5000000   0.0000000  -0.2496918), wk =   0.0133333
        k(   41) = (  -0.5000000   0.0000000  -0.0948187), wk =   0.0266667
        k(   42) = (  -0.5000000   0.0000000   0.0600545), wk =   0.0266667
        k(   43) = (  -0.5000000   0.1386509  -0.2496918), wk =   0.0266667
        k(   44) = (  -0.5000000   0.1386509  -0.0948187), wk =   0.0533333
        k(   45) = (  -0.5000000   0.1386509   0.0600545), wk =   0.0533333
        k(   46) = (  -0.5000000   0.2773018  -0.2496918), wk =   0.0266667
        k(   47) = (  -0.5000000   0.2773018  -0.0948187), wk =   0.0533333
        k(   48) = (  -0.5000000   0.2773018   0.0600545), wk =   0.0533333

     Dense  grid:   121635 G-vectors     FFT dimensions: (  50,  80,  80)

     Smooth grid:    87073 G-vectors     FFT dimensions: (  45,  72,  72)

     Estimated max dynamical RAM per process >     360.33 MB

     Initial potential from superposition of free atoms

     starting charge   23.99876, renormalised to   24.00000
     Starting wfcs are   28 randomized atomic wfcs

     total cpu time spent up to now is        7.3 secs

     Self-consistent Calculation

     iteration #  1     ecut=    75.00 Ry     beta= 0.70
     Davidson diagonalization with overlap
     ethr =  1.00E-02,  avg # of iterations =  3.0

     total cpu time spent up to now is       22.0 secs

     total energy              =     -39.46151782 Ry
     estimated scf accuracy    <       1.11613715 Ry

     iteration #  2     ecut=    75.00 Ry     beta= 0.70
     Davidson diagonalization with overlap
     ethr =  4.65E-03,  avg # of iterations =  2.0

     total cpu time spent up to now is       35.1 secs

     total energy              =     -39.60211031 Ry
     estimated scf accuracy    <       0.07442642 Ry

     iteration #  3     ecut=    75.00 Ry     beta= 0.70
     Davidson diagonalization with overlap
     ethr =  3.10E-04,  avg # of iterations =  2.5

     total cpu time spent up to now is       48.9 secs

     total energy              =     -39.61335921 Ry
     estimated scf accuracy    <       0.00332002 Ry

     iteration #  4     ecut=    75.00 Ry     beta= 0.70
     Davidson diagonalization with overlap
     ethr =  1.38E-05,  avg # of iterations =  5.7

     total cpu time spent up to now is       63.5 secs

     total energy              =     -39.61379418 Ry
     estimated scf accuracy    <       0.00003781 Ry

     iteration #  5     ecut=    75.00 Ry     beta= 0.70
     Davidson diagonalization with overlap
     ethr =  1.58E-07,  avg # of iterations =  2.4

     total cpu time spent up to now is       76.8 secs

     total energy              =     -39.61380949 Ry
     estimated scf accuracy    <       0.00000320 Ry

     iteration #  6     ecut=    75.00 Ry     beta= 0.70
     Davidson diagonalization with overlap
     ethr =  1.33E-08,  avg # of iterations =  2.0

     total cpu time spent up to now is       89.8 secs

     total energy              =     -39.61381021 Ry
     estimated scf accuracy    <       0.00000007 Ry

     iteration #  7     ecut=    75.00 Ry     beta= 0.70
     Davidson diagonalization with overlap
     ethr =  2.92E-10,  avg # of iterations =  2.8

     total cpu time spent up to now is      103.1 secs

     End of self-consistent calculation

          k = 0.0000 0.0000 0.0000 ( 10845 PWs)   bands (ev):

   -12.6184 -12.1657  -7.1633  -6.9808  -6.3231  -6.1098  -5.3614  -5.0122
    -4.8846  -4.7447  -3.6863  -3.3323   2.0310   3.1241   4.6898   4.8090

          k = 0.0000 0.0000 0.1549 ( 10896 PWs)   bands (ev):

   -12.5705 -12.2018  -7.2500  -6.9929  -6.5213  -6.1624  -5.1407  -4.9376
    -4.8321  -4.7177  -3.6134  -3.3253   2.1153   3.0111   4.6748   4.8265

          k = 0.0000 0.0000 0.3097 ( 10899 PWs)   bands (ev):

   -12.4478 -12.3056  -7.3171  -7.1825  -6.5194  -6.3215  -5.0170  -5.0032
    -4.5826  -4.5777  -3.4516  -3.3386   2.3692   2.7239   4.5326   4.7457

          k = 0.0000 0.1387 0.0000 ( 10864 PWs)   bands (ev):

   -12.5775 -12.2112  -7.1147  -6.9700  -6.3908  -6.2383  -5.3201  -4.9936
    -4.7917  -4.7370  -3.6463  -3.3535   2.1032   2.9638   4.7856   4.8066

          k = 0.0000 0.1387 0.1549 ( 10889 PWs)   bands (ev):

   -12.5353 -12.2366  -7.3081  -7.0110  -6.5224  -6.1234  -5.1554  -4.8863
    -4.8355  -4.6748  -3.5933  -3.3512   2.1602   2.8685   4.7484   4.9385

          k = 0.0000 0.1387 0.3097 ( 10900 PWs)   bands (ev):

   -12.4303 -12.3147  -7.4376  -7.3121  -6.3686  -6.1889  -5.0058  -4.9414
    -4.6505  -4.5646  -3.4617  -3.3657   2.3506   2.6315   4.6977   4.8953

          k = 0.0000 0.2773 0.0000 ( 10878 PWs)   bands (ev):

   -12.4680 -12.3281  -7.0003  -6.9427  -6.5089  -6.4556  -5.2072  -5.0674
    -4.6666  -4.6658  -3.5443  -3.4278   2.3094   2.6247   4.8279   5.0103

          k = 0.0000 0.2773 0.1549 ( 10877 PWs)   bands (ev):

   -12.4430 -12.3286  -7.3132  -7.1823  -6.3594  -6.1799  -5.1081  -4.9930
    -4.6913  -4.6280  -3.5260  -3.4271   2.3082   2.5698   4.9562   5.1366

          k = 0.0000 0.2773 0.3097 ( 10892 PWs)   bands (ev):

   -12.3878 -12.3434  -7.5542  -7.5037  -6.1362  -6.0612  -4.9380  -4.8593
    -4.7122  -4.6211  -3.4633  -3.4235   2.3559   2.4600   5.1442   5.2812

          k = 0.1667 0.0000 0.0832 ( 10876 PWs)   bands (ev):

   -12.5510 -12.1598  -7.1109  -6.8925  -6.6185  -6.1582  -5.1665  -5.0513
    -4.8662  -4.8452  -3.7366  -3.4317   1.9812   2.8177   4.5895   4.6078

          k = 0.1667 0.0000 0.2381 ( 10892 PWs)   bands (ev):

   -12.4697 -12.2207  -7.2037  -7.1145  -6.6365  -6.2055  -5.0974  -5.0059
    -4.7547  -4.6020  -3.6776  -3.4586   2.1627   2.6461   4.4839   4.7796

          k = 0.1667 0.0000 0.3930 ( 10890 PWs)   bands (ev):

   -12.3452 -12.3375  -7.3098  -7.1680  -6.4560  -6.3453  -5.1891  -5.1234
    -4.6127  -4.4808  -3.5054  -3.4514   2.4036   2.5298   4.6097   4.7370

          k = 0.1667 0.0000-0.2265 ( 10877 PWs)   bands (ev):

   -12.4670 -12.2312  -7.2795  -6.9935  -6.4296  -6.2963  -5.3613  -5.1238
    -4.7333  -4.5714  -3.5468  -3.3667   2.1701   2.8757   4.7616   4.7991

          k = 0.1667 0.0000-0.0716 ( 10873 PWs)   bands (ev):

   -12.5507 -12.1649  -7.1293  -6.9095  -6.3751  -6.2003  -5.4972  -5.0739
    -4.9111  -4.7068  -3.6804  -3.3611   2.0138   2.9556   4.6049   4.7152

          k = 0.1667 0.1387 0.0832 ( 10885 PWs)   bands (ev):

   -12.5146 -12.1978  -7.1243  -6.9066  -6.6032  -6.1917  -5.2337  -5.0446
    -4.8312  -4.7556  -3.7185  -3.4537   2.0782   2.7694   4.6442   4.7940

          k = 0.1667 0.1387 0.2381 ( 10904 PWs)   bands (ev):

   -12.4439 -12.2419  -7.3004  -7.1995  -6.4892  -6.1608  -5.1502  -4.9641
    -4.7625  -4.5755  -3.6776  -3.4658   2.2109   2.6307   4.5883   4.9603

          k = 0.1667 0.1387 0.3930 ( 10881 PWs)   bands (ev):

   -12.3401 -12.3338  -7.3965  -7.2807  -6.4154  -6.1882  -5.1965  -5.0514
    -4.6319  -4.5007  -3.5196  -3.4366   2.3504   2.5078   4.6008   4.9740

          k = 0.1667 0.1387-0.2265 ( 10880 PWs)   bands (ev):

   -12.4423 -12.2509  -7.3340  -7.0543  -6.5011  -6.1756  -5.3117  -5.0588
    -4.7299  -4.5969  -3.5238  -3.3781   2.1697   2.7289   4.7585   4.8388

          k = 0.1667 0.1387-0.0716 ( 10861 PWs)   bands (ev):

   -12.5146 -12.2023  -7.1092  -6.8981  -6.4518  -6.2929  -5.4265  -5.0219
    -4.8569  -4.7270  -3.6459  -3.3834   2.0701   2.8377   4.5856   4.9294

          k = 0.1667 0.2773 0.0832 ( 10900 PWs)   bands (ev):

   -12.4181 -12.2970  -7.1024  -7.0059  -6.4836  -6.3125  -5.2317  -5.1413
    -4.7147  -4.6732  -3.6438  -3.5299   2.3231   2.5953   4.9284   5.1079

          k = 0.1667 0.2773 0.2381 ( 10893 PWs)   bands (ev):

   -12.3779 -12.3004  -7.3875  -7.3401  -6.2619  -6.1397  -5.1500  -5.0559
    -4.6661  -4.5820  -3.6217  -3.5223   2.3540   2.5313   4.9176   5.2397

          k = 0.1667 0.2773 0.3930 ( 10887 PWs)   bands (ev):

   -12.3309 -12.3285  -7.4919  -7.4505  -6.2471  -6.1203  -5.1093  -5.0059
    -4.6351  -4.5628  -3.5012  -3.4541   2.3306   2.4123   4.8165   5.1578

          k = 0.1667 0.2773-0.2265 ( 10886 PWs)   bands (ev):

   -12.3793 -12.3058  -7.3572  -7.2437  -6.3808  -6.2158  -5.1485  -5.0117
    -4.7122  -4.6488  -3.4694  -3.4136   2.2348   2.4428   4.8342   4.9151

          k = 0.1667 0.2773-0.0716 ( 10883 PWs)   bands (ev):

   -12.4193 -12.2999  -7.0342  -6.9217  -6.5399  -6.4483  -5.2618  -5.0830
    -4.7496  -4.7158  -3.5553  -3.4523   2.2530   2.5489   4.7652   5.0261

          k = 0.3333 0.0000 0.1665 ( 10872 PWs)   bands (ev):

   -12.4058 -12.1478  -7.1678  -7.0007  -6.5757  -6.2207  -5.2927  -5.1070
    -4.8409  -4.6197  -3.9443  -3.7116   2.0205   2.3574   4.4552   4.6899

          k = 0.3333 0.0000 0.3213 ( 10897 PWs)   bands (ev):

   -12.3385 -12.2031  -7.3322  -7.0387  -6.4725  -6.2313  -5.3650  -5.1937
    -4.7150  -4.4853  -3.8758  -3.7004   2.2372   2.2660   4.6621   4.8275

          k = 0.3333 0.0000 0.4762 ( 10921 PWs)   bands (ev):

   -12.2970 -12.2571  -7.2649  -6.9305  -6.4082  -6.3215  -5.5516  -5.3247
    -4.7258  -4.5570  -3.6269  -3.6056   2.1111   2.5157   4.4615   4.6596

          k = 0.3333 0.0000-0.1433 ( 10880 PWs)   bands (ev):

   -12.3858 -12.1878  -7.0473  -6.7765  -6.4757  -6.3856  -5.6639  -5.3529
    -4.8158  -4.6923  -3.6451  -3.4738   2.0211   2.5790   4.2768   4.3659

          k = 0.3333 0.0000 0.0116 ( 10867 PWs)   bands (ev):

   -12.4270 -12.1463  -6.9283  -6.8375  -6.6550  -6.3129  -5.4221  -5.3197
    -4.8091  -4.7909  -3.8020  -3.5525   1.9695   2.4332   4.1782   4.4922

          k = 0.3333 0.1387 0.1665 ( 10887 PWs)   bands (ev):

   -12.3801 -12.1711  -7.1613  -7.0184  -6.5701  -6.2483  -5.3373  -5.1759
    -4.7739  -4.5969  -3.9102  -3.6782   2.1393   2.4063   4.4290   4.8246

          k = 0.3333 0.1387 0.3213 ( 10900 PWs)   bands (ev):

   -12.3230 -12.2132  -7.3170  -7.0903  -6.5038  -6.2323  -5.4062  -5.1688
    -4.6873  -4.4885  -3.8230  -3.6618   2.2295   2.3726   4.4745   4.8929

          k = 0.3333 0.1387 0.4762 ( 10887 PWs)   bands (ev):

   -12.2899 -12.2575  -7.2491  -6.9897  -6.5497  -6.2917  -5.4469  -5.2600
    -4.7257  -4.5820  -3.6031  -3.5885   2.1192   2.4984   4.4039   4.6773

          k = 0.3333 0.1387-0.1433 ( 10882 PWs)   bands (ev):

   -12.3649 -12.2043  -7.0313  -6.8148  -6.5626  -6.4535  -5.5258  -5.2489
    -4.8170  -4.7471  -3.6281  -3.4913   2.0622   2.5484   4.2857   4.5392

          k = 0.3333 0.1387 0.0116 ( 10885 PWs)   bands (ev):

   -12.3995 -12.1720  -6.9188  -6.8402  -6.6809  -6.3751  -5.4434  -5.2182
    -4.8444  -4.7612  -3.7837  -3.5694   2.0709   2.4638   4.3086   4.6256

          k = 0.3333 0.2773 0.1665 ( 10902 PWs)   bands (ev):

   -12.3138 -12.2337  -7.1347  -7.0784  -6.4871  -6.3495  -5.3685  -5.3021
    -4.6681  -4.6014  -3.7849  -3.6774   2.3691   2.4676   4.5448   4.7988

          k = 0.3333 0.2773 0.3213 ( 10898 PWs)   bands (ev):

   -12.2847 -12.2426  -7.2753  -7.1953  -6.4677  -6.3324  -5.3647  -5.2406
    -4.5976  -4.5194  -3.7033  -3.6315   2.3350   2.4244   4.4319   4.6515

          k = 0.3333 0.2773 0.4762 ( 10897 PWs)   bands (ev):

   -12.2744 -12.2619  -7.2090  -7.1179  -6.5674  -6.4246  -5.2531  -5.1776
    -4.7125  -4.6498  -3.5651  -3.5610   2.2129   2.3840   4.4443   4.6043

          k = 0.3333 0.2773-0.1433 ( 10918 PWs)   bands (ev):

   -12.3117 -12.2501  -6.9918  -6.9039  -6.6363  -6.5615  -5.2779  -5.1336
    -4.8538  -4.8267  -3.5861  -3.5350   2.2083   2.4141   4.5024   4.7304

          k = 0.3333 0.2773 0.0116 ( 10902 PWs)   bands (ev):

   -12.3279 -12.2408  -6.9007  -6.8721  -6.6471  -6.5224  -5.3497  -5.2182
    -4.8312  -4.7655  -3.7121  -3.6228   2.2941   2.4568   4.6178   4.8080

          k =-0.5000 0.0000-0.2497 ( 10874 PWs)   bands (ev):

   -12.3271 -12.1417  -7.3830  -6.9493  -6.4262  -6.2237  -5.3974  -5.1422
    -4.8014  -4.5009  -4.0915  -3.8869   2.0956   2.1825   4.5475   5.0552

          k =-0.5000 0.0000-0.0948 ( 10910 PWs)   bands (ev):

   -12.3153 -12.1657  -7.2628  -6.8886  -6.4468  -6.2883  -5.4788  -5.3063
    -4.7806  -4.5935  -3.9348  -3.7524   2.1322   2.1516   4.2405   4.7583

          k =-0.5000 0.0000 0.0601 ( 10883 PWs)   bands (ev):

   -12.2788 -12.2218  -6.9672  -6.7871  -6.5042  -6.4680  -5.5783  -5.5230
    -4.7807  -4.7374  -3.6734  -3.5955   2.1406   2.2006   4.0553   4.2680

          k =-0.5000 0.1387-0.2497 ( 10894 PWs)   bands (ev):

   -12.3079 -12.1577  -7.3199  -6.9487  -6.4716  -6.3248  -5.4530  -5.2232
    -4.7183  -4.4982  -3.9899  -3.8233   2.2190   2.2485   4.3624   4.8663

          k =-0.5000 0.1387-0.0948 ( 10897 PWs)   bands (ev):

   -12.2990 -12.1777  -7.2063  -6.8981  -6.5181  -6.3878  -5.4664  -5.2729
    -4.7702  -4.5946  -3.8780  -3.7241   2.1614   2.2759   4.2105   4.7784

          k =-0.5000 0.1387 0.0601 ( 10903 PWs)   bands (ev):

   -12.2703 -12.2241  -6.9375  -6.8119  -6.6039  -6.5449  -5.4727  -5.3884
    -4.8288  -4.7605  -3.6716  -3.6023   2.1735   2.2661   4.1266   4.4003

          k =-0.5000 0.2773-0.2497 ( 10904 PWs)   bands (ev):

   -12.2590 -12.2015  -7.1569  -6.9967  -6.5368  -6.4966  -5.4815  -5.3827
    -4.5910  -4.5175  -3.8107  -3.7467   2.3846   2.4069   4.2504   4.5084

          k =-0.5000 0.2773-0.0948 ( 10895 PWs)   bands (ev):

   -12.2581 -12.2116  -7.0635  -6.9377  -6.6193  -6.5703  -5.3983  -5.3021
    -4.7086  -4.6323  -3.7587  -3.6977   2.3097   2.3877   4.2819   4.5627

          k =-0.5000 0.2773 0.0601 ( 10910 PWs)   bands (ev):

   -12.2511 -12.2334  -6.8802  -6.8556  -6.7167  -6.6683  -5.2722  -5.2133
    -4.9014  -4.8486  -3.6538  -3.6249   2.2781   2.3299   4.3955   4.5760

     the Fermi energy is     0.8743 ev

!    total energy              =     -39.61381023 Ry
     estimated scf accuracy    <          1.3E-09 Ry
     smearing contrib. (-TS)   =       0.00000000 Ry
     internal energy E=F+TS    =     -39.61381023 Ry

     The total energy is F=E-TS. E is the sum of the following terms:
     one-electron contribution =     -16.34402359 Ry
     hartree contribution      =      13.57332850 Ry
     xc contribution           =     -20.26299601 Ry
     ewald contribution        =     -16.58011913 Ry

     convergence has been achieved in   7 iterations

     Forces acting on atoms (cartesian axes, Ry/au):

     atom    1 type  1   force =    -0.00131911   -0.00174585   -0.00450797
     atom    2 type  1   force =     0.00131911    0.00174585    0.00450797
     atom    3 type  1   force =     0.00131911   -0.00174585    0.00450797
     atom    4 type  1   force =    -0.00131911    0.00174585   -0.00450797
     atom    5 type  2   force =    -0.00181216    0.00111755    0.00325784
     atom    6 type  2   force =     0.00181216   -0.00111755   -0.00325784
     atom    7 type  2   force =     0.00181216    0.00111755   -0.00325784
     atom    8 type  2   force =    -0.00181216   -0.00111755    0.00325784
     atom    9 type  2   force =     0.00137302    0.00250036    0.00040833
     atom   10 type  2   force =    -0.00137302   -0.00250036   -0.00040833
     atom   11 type  2   force =    -0.00137302    0.00250036   -0.00040833
     atom   12 type  2   force =     0.00137302   -0.00250036    0.00040833
     atom   13 type  2   force =     0.00297907    0.00228803    0.00073820
     atom   14 type  2   force =    -0.00297907   -0.00228803   -0.00073820
     atom   15 type  2   force =    -0.00297907    0.00228803   -0.00073820
     atom   16 type  2   force =     0.00297907   -0.00228803    0.00073820

     Total force =     0.015902     Total SCF correction =     0.000012


     Computing stress (Cartesian axis) and pressure

          total   stress  (Ry/bohr**3)                   (kbar)     P=       13.48
   0.00010198   0.00000000  -0.00001245           15.00        0.00       -1.83
   0.00000000   0.00009418   0.00000000            0.00       13.85        0.00
  -0.00001245   0.00000000   0.00007879           -1.83        0.00       11.59


     Writing output data file ./BH3_experimental.save/

     init_run     :     21.65s CPU      7.23s WALL (       1 calls)
     electrons    :    408.94s CPU     95.83s WALL (       1 calls)
     forces       :      5.34s CPU      1.73s WALL (       1 calls)
     stress       :     25.02s CPU      7.35s WALL (       1 calls)

     Called by init_run:
     wfcinit      :     20.15s CPU      5.82s WALL (       1 calls)
     potinit      :      0.51s CPU      0.53s WALL (       1 calls)
     hinit0       :      0.71s CPU      0.72s WALL (       1 calls)

     Called by electrons:
     c_bands      :    343.57s CPU     78.62s WALL (       7 calls)
     sum_band     :     61.82s CPU     15.74s WALL (       7 calls)
     v_of_rho     :      1.82s CPU      0.85s WALL (       8 calls)
     newd         :      1.34s CPU      0.59s WALL (       8 calls)
     mix_rho      :      0.49s CPU      0.13s WALL (       7 calls)

     Called by c_bands:
     init_us_2    :     16.65s CPU      3.21s WALL (     816 calls)
     cegterg      :    321.47s CPU     73.58s WALL (     336 calls)

     Called by *egterg:
     cdiaghg      :      3.74s CPU      0.37s WALL (    1310 calls)
     h_psi        :    282.07s CPU     72.59s WALL (    1358 calls)
     s_psi        :      9.84s CPU      0.97s WALL (    1358 calls)
     g_psi        :      6.29s CPU      0.77s WALL (     974 calls)

     Called by h_psi:
     h_psi:calbec :     10.27s CPU      1.93s WALL (    1358 calls)
     vloc_psi     :    257.71s CPU     68.94s WALL (    1358 calls)
     add_vuspsi   :     12.15s CPU      1.36s WALL (    1358 calls)

     General routines
     calbec       :     13.35s CPU      2.50s WALL (    1934 calls)
     fft          :      1.20s CPU      0.51s WALL (     127 calls)
     ffts         :      0.14s CPU      0.03s WALL (      15 calls)
     fftw         :    245.42s CPU     66.65s WALL (   38690 calls)
     interpolate  :      0.04s CPU      0.04s WALL (       8 calls)

     Parallel routines

     PWSCF        :   7m41.24s CPU   1m52.42s WALL


   This run was terminated on:  19:38:54  28Nov2023            

=------------------------------------------------------------------------------=
   JOB DONE.
=------------------------------------------------------------------------------=
