
     Program PWSCF v.6.7MaX starts on 28Nov2023 at 19:39:34 

     This program is part of the open-source Quantum ESPRESSO suite
     for quantum simulation of materials; please cite
         "P. Giannozzi et al., J. Phys.:Condens. Matter 21 395502 (2009);
         "P. Giannozzi et al., J. Phys.:Condens. Matter 29 465901 (2017);
          URL http://www.quantum-espresso.org", 
     in publications or presentations arising from this work. More details at
     http://www.quantum-espresso.org/quote

     Parallel version (MPI), running on     1 processors

     MPI processes distributed on     1 nodes
     Reading input from GaH3_sym.in

     Current dimensions of program PWSCF are:
     Max number of different atomic species (ntypx) = 10
     Max number of k-points (npk) =  40000
     Max angular momentum in pseudopotentials (lmaxx) =  3
     file Ga.pbe-dn-kjpaw_psl.1.0.0.UPF: wavefunction(s)  4S renormalized

     IMPORTANT: XC functional enforced from input :
     Exchange-correlation= PBE
                           (   1   4   3   4   0   0   0)
     Any further DFT definition will be discarded
     Please, verify this is what you really want


     Subspace diagonalization in iterative solution of the eigenvalue problem:
     a serial algorithm will be used

     Message from routine setup:
     using ibrav=0 with symmetry is DISCOURAGED, use correct ibrav instead

     G-vector sticks info
     --------------------
     sticks:   dense  smooth     PW     G-vecs:    dense   smooth      PW
     Sum         877     697    213                22113    15701    2591



     bravais-lattice index     =            0
     lattice parameter (alat)  =       5.4188  a.u.
     unit-cell volume          =     179.6737 (a.u.)^3
     number of atoms/cell      =            4
     number of atomic types    =            2
     number of electrons       =        16.00
     number of Kohn-Sham states=           12
     kinetic-energy cutoff     =      75.0000  Ry
     charge density cutoff     =     375.0000  Ry
     scf convergence threshold =      1.0E-08
     mixing beta               =       0.7000
     number of iterations used =            8  plain     mixing
     Exchange-correlation= PBE
                           (   1   4   3   4   0   0   0)

     celldm(1)=   5.418809  celldm(2)=   0.000000  celldm(3)=   0.000000
     celldm(4)=   0.000000  celldm(5)=   0.000000  celldm(6)=   0.000000

     crystal axes: (cart. coord. in units of alat)
               a(1) = (   1.000000   0.000000   0.000000 )  
               a(2) = (   0.000000   1.000000   0.000000 )  
               a(3) = (   0.500000   0.500000   1.129206 )  

     reciprocal axes: (cart. coord. in units 2 pi/alat)
               b(1) = (  1.000000  0.000000 -0.442789 )  
               b(2) = (  0.000000  1.000000 -0.442789 )  
               b(3) = (  0.000000  0.000000  0.885578 )  


     PseudoPot. # 1 for H  read from file:
     ../../pseudopotentials/H.pbe-rrkjus_psl.1.0.0.UPF
     MD5 check sum: f52b6d4d1c606e5624b1dc7b2218f220
     Pseudo is Ultrasoft, Zval =  1.0
     Generated using "atomic" code by A. Dal Corso  v.5.1
     Using radial grid of  929 points,  2 beta functions with: 
                l(1) =   0
                l(2) =   0
     Q(r) pseudized with 0 coefficients 


     PseudoPot. # 2 for Ga read from file:
     ../../pseudopotentials/Ga.pbe-dn-kjpaw_psl.1.0.0.UPF
     MD5 check sum: a27b4342b1af7e5f338de752e9ed7044
     Pseudo is Projector augmented-wave + core cor, Zval = 13.0
     Generated using "atomic" code by A. Dal Corso  v.5.1
     Shape of augmentation charge: PSQ
     Using radial grid of 1205 points,  6 beta functions with: 
                l(1) =   0
                l(2) =   0
                l(3) =   1
                l(4) =   1
                l(5) =   2
                l(6) =   2
     Q(r) pseudized with 0 coefficients 


     atomic species   valence    mass     pseudopotential
        H              1.00     1.00750     H ( 1.00)
        Ga            13.00    69.72300     Ga( 1.00)

     16 Sym. Ops., with inversion, found



   Cartesian axes

     site n.     atom                  positions (alat units)
         1           Ga  tau(   1) = (   0.0000000   0.0000000   0.0000000  )
         2           H   tau(   2) = (   1.0000000   0.5000000   0.5646028  )
         3           H   tau(   3) = (   0.5000000   1.0000000   0.5646028  )
         4           H   tau(   4) = (   0.5000000   0.5000000   0.0000000  )

     number of k points=    16  Marzari-Vanderbilt smearing, width (Ry)=  0.0050
                       cart. coord. in units 2pi/alat
        k(    1) = (   0.0000000   0.0000000   0.0000000), wk =   0.0370370
        k(    2) = (   0.0000000   0.0000000   0.2951928), wk =   0.0740741
        k(    3) = (   0.0000000   0.3333333  -0.1475964), wk =   0.2962963
        k(    4) = (   0.0000000   0.3333333  -0.4427891), wk =   0.1481481
        k(    5) = (   0.1666667   0.0000000  -0.0737982), wk =   0.0740741
        k(    6) = (   0.1666667   0.0000000   0.2213946), wk =   0.0740741
        k(    7) = (   0.1666667   0.0000000  -0.3689909), wk =   0.0740741
        k(    8) = (   0.1666667   0.3333333  -0.2213946), wk =   0.1481481
        k(    9) = (   0.1666667   0.3333333   0.0737982), wk =   0.1481481
        k(   10) = (   0.1666667   0.3333333  -0.5165873), wk =   0.1481481
        k(   11) = (   0.3333333   0.3333333  -0.2951928), wk =   0.2962963
        k(   12) = (   0.3333333   0.3333333   0.0000000), wk =   0.1481481
        k(   13) = (  -0.5000000   0.0000000   0.2213946), wk =   0.0370370
        k(   14) = (  -0.5000000   0.0000000   0.5165873), wk =   0.0740741
        k(   15) = (  -0.5000000   0.3333333   0.0737982), wk =   0.1481481
        k(   16) = (  -0.5000000   0.3333333  -0.2213946), wk =   0.0740741

     Dense  grid:    22113 G-vectors     FFT dimensions: (  36,  36,  45)

     Smooth grid:    15701 G-vectors     FFT dimensions: (  30,  30,  40)

     Estimated max dynamical RAM per process >      91.61 MB

     Initial potential from superposition of free atoms

     starting charge   15.99702, renormalised to   16.00000
     Starting wfcs are   12 randomized atomic wfcs
     Checking if some PAW data can be deallocated... 

     total cpu time spent up to now is        0.9 secs

     Self-consistent Calculation

     iteration #  1     ecut=    75.00 Ry     beta= 0.70
     Davidson diagonalization with overlap
     ethr =  1.00E-02,  avg # of iterations =  3.8

     Threshold (ethr) on eigenvalues was too large:
     Diagonalizing with lowered threshold

     Davidson diagonalization with overlap
     ethr =  5.57E-04,  avg # of iterations =  5.0

     total cpu time spent up to now is        2.7 secs

     total energy              =    -281.18785121 Ry
     estimated scf accuracy    <       0.08518115 Ry

     iteration #  2     ecut=    75.00 Ry     beta= 0.70
     Davidson diagonalization with overlap
     ethr =  5.32E-04,  avg # of iterations =  2.7

     total cpu time spent up to now is        3.6 secs

     total energy              =    -281.20889280 Ry
     estimated scf accuracy    <       0.00661495 Ry

     iteration #  3     ecut=    75.00 Ry     beta= 0.70
     Davidson diagonalization with overlap
     ethr =  4.13E-05,  avg # of iterations =  7.3

     total cpu time spent up to now is        4.9 secs

     total energy              =    -281.21408463 Ry
     estimated scf accuracy    <       0.00214199 Ry

     iteration #  4     ecut=    75.00 Ry     beta= 0.70
     Davidson diagonalization with overlap
     ethr =  1.34E-05,  avg # of iterations =  3.1

     total cpu time spent up to now is        5.7 secs

     total energy              =    -281.21430176 Ry
     estimated scf accuracy    <       0.00027091 Ry

     iteration #  5     ecut=    75.00 Ry     beta= 0.70
     Davidson diagonalization with overlap
     ethr =  1.69E-06,  avg # of iterations =  5.9

     total cpu time spent up to now is        6.9 secs

     total energy              =    -281.21442189 Ry
     estimated scf accuracy    <       0.00001409 Ry

     iteration #  6     ecut=    75.00 Ry     beta= 0.70
     Davidson diagonalization with overlap
     ethr =  8.81E-08,  avg # of iterations =  5.9

     total cpu time spent up to now is        8.1 secs

     total energy              =    -281.21443931 Ry
     estimated scf accuracy    <       0.00001577 Ry

     iteration #  7     ecut=    75.00 Ry     beta= 0.70
     Davidson diagonalization with overlap
     ethr =  8.81E-08,  avg # of iterations =  1.2

     total cpu time spent up to now is        8.8 secs

     total energy              =    -281.21443979 Ry
     estimated scf accuracy    <       0.00000061 Ry

     iteration #  8     ecut=    75.00 Ry     beta= 0.70
     Davidson diagonalization with overlap
     ethr =  3.79E-09,  avg # of iterations =  6.4

     total cpu time spent up to now is       10.0 secs

     total energy              =    -281.21444065 Ry
     estimated scf accuracy    <       0.00000033 Ry

     iteration #  9     ecut=    75.00 Ry     beta= 0.70
     Davidson diagonalization with overlap
     ethr =  2.07E-09,  avg # of iterations =  1.2

     total cpu time spent up to now is       10.8 secs

     total energy              =    -281.21444055 Ry
     estimated scf accuracy    <       0.00000027 Ry

     iteration # 10     ecut=    75.00 Ry     beta= 0.70
     Davidson diagonalization with overlap
     ethr =  1.71E-09,  avg # of iterations =  1.2

     total cpu time spent up to now is       11.6 secs

     total energy              =    -281.21444055 Ry
     estimated scf accuracy    <       0.00000003 Ry

     iteration # 11     ecut=    75.00 Ry     beta= 0.70
     Davidson diagonalization with overlap
     ethr =  1.87E-10,  avg # of iterations =  6.2

     total cpu time spent up to now is       12.9 secs

     total energy              =    -281.21444060 Ry
     estimated scf accuracy    <       0.00000006 Ry

     iteration # 12     ecut=    75.00 Ry     beta= 0.70
     Davidson diagonalization with overlap
     ethr =  1.87E-10,  avg # of iterations =  1.1

     total cpu time spent up to now is       13.7 secs

     total energy              =    -281.21444059 Ry
     estimated scf accuracy    <       0.00000002 Ry

     iteration # 13     ecut=    75.00 Ry     beta= 0.70
     Davidson diagonalization with overlap
     ethr =  1.25E-10,  avg # of iterations =  1.8

     total cpu time spent up to now is       14.5 secs

     End of self-consistent calculation

          k = 0.0000 0.0000 0.0000 (  1985 PWs)   bands (ev):

    -7.4355  -7.3356  -7.1228  -7.1228  -7.0864  -5.1335   7.3880  10.4261
    10.5915  15.3698  16.1603  16.1603

          k = 0.0000 0.0000 0.2952 (  1993 PWs)   bands (ev):

    -7.4545  -7.3504  -7.1040  -7.1040  -7.0846  -3.5511   1.2815  10.0926
    12.9436  14.4355  14.4355  20.3219

          k = 0.0000 0.3333-0.1476 (  1965 PWs)   bands (ev):

    -7.3583  -7.2590  -7.1687  -7.1399  -7.1037  -2.7295   4.3631   6.0966
     9.2384  14.5798  17.4198  18.2913

          k = 0.0000 0.3333-0.4428 (  1966 PWs)   bands (ev):

    -7.3674  -7.2484  -7.1677  -7.1555  -7.0946  -0.1241   1.0138   3.0078
    11.5047  16.1822  18.6423  18.8224

          k = 0.1667 0.0000-0.0738 (  1976 PWs)   bands (ev):

    -7.3990  -7.2825  -7.1619  -7.1173  -7.1131  -4.5391   6.6194   8.9704
    10.9802  12.6241  16.4590  17.2714

          k = 0.1667 0.0000 0.2214 (  1980 PWs)   bands (ev):

    -7.4089  -7.2892  -7.1566  -7.1145  -7.1057  -3.7432   3.3338   7.8956
    11.5233  15.4072  16.1472  18.9422

          k = 0.1667 0.0000-0.3690 (  1987 PWs)   bands (ev):

    -7.4187  -7.2946  -7.1525  -7.1124  -7.0975  -2.2105   0.3639   7.2674
    11.6101  14.7092  17.8390  21.3008

          k = 0.1667 0.3333-0.2214 (  1976 PWs)   bands (ev):

    -7.2829  -7.2529  -7.2326  -7.1428  -7.1281  -1.7247   4.1698   5.1491
     9.2758  12.7830  16.0068  17.7186

          k = 0.1667 0.3333 0.0738 (  1964 PWs)   bands (ev):

    -7.2760  -7.2434  -7.2340  -7.1480  -7.1354  -2.5104   5.5480   6.9918
     9.3592  12.2067  14.1739  16.1016

          k = 0.1667 0.3333-0.5166 (  1976 PWs)   bands (ev):

    -7.2894  -7.2518  -7.2344  -7.1350  -7.1305  -0.2345   2.2930   3.5460
     9.1238  15.1203  17.2909  18.8710

          k = 0.3333 0.3333-0.2952 (  1982 PWs)   bands (ev):

    -7.3581  -7.2557  -7.1983  -7.1227  -7.1127   0.4668   4.4612   4.8567
     6.3777  13.0155  13.6757  15.6654

          k = 0.3333 0.3333 0.0000 (  1960 PWs)   bands (ev):

    -7.3576  -7.2587  -7.1872  -7.1338  -7.1063  -1.0904   6.7789   6.9033
     8.9022  10.0322  11.3418  14.1545

          k =-0.5000 0.0000 0.2214 (  1954 PWs)   bands (ev):

    -7.3427  -7.3018  -7.1958  -7.0974  -7.0732  -0.0720   0.6897   5.8834
     8.4834  15.3653  18.3991  19.6001

          k =-0.5000 0.0000 0.5166 (  1969 PWs)   bands (ev):

    -7.3423  -7.2919  -7.1955  -7.0977  -7.0841  -0.5255   1.8313   4.1400
    10.2085  15.3490  18.3164  18.8101

          k =-0.5000 0.3333 0.0738 (  1961 PWs)   bands (ev):

    -7.4128  -7.2868  -7.1929  -7.1176  -7.0357   1.4529   3.7554   5.7428
     7.5141  10.5259  12.5602  14.0910

          k =-0.5000 0.3333-0.2214 (  1964 PWs)   bands (ev):

    -7.4115  -7.2665  -7.2168  -7.1176  -7.0344   2.0493   2.4694   6.6494
     8.2080  10.2591  11.1187  14.7623

     the Fermi energy is     7.3265 ev

!    total energy              =    -281.21444059 Ry
     estimated scf accuracy    <          4.9E-09 Ry
     smearing contrib. (-TS)   =       0.00001447 Ry
     internal energy E=F+TS    =    -281.21445506 Ry

     The total energy is F=E-TS. E is the sum of the following terms:
     one-electron contribution =     -98.85706273 Ry
     hartree contribution      =      64.56360490 Ry
     xc contribution           =     -40.29304277 Ry
     ewald contribution        =     -95.13248060 Ry
     one-center paw contrib.   =    -111.49547386 Ry

     convergence has been achieved in  13 iterations

     Forces acting on atoms (cartesian axes, Ry/au):

     atom    1 type  2   force =     0.00000000    0.00000000    0.00000000
     atom    2 type  1   force =     0.00000000    0.00000000    0.00000000
     atom    3 type  1   force =     0.00000000    0.00000000   -0.00000000
     atom    4 type  1   force =     0.00000000    0.00000000    0.00000000

     Total force =     0.000000     Total SCF correction =     0.000000


     Computing stress (Cartesian axis) and pressure

          total   stress  (Ry/bohr**3)                   (kbar)     P=       -1.97
  -0.00005117   0.00000000   0.00000000           -7.53        0.00        0.00
   0.00000000  -0.00005117   0.00000000            0.00       -7.53        0.00
   0.00000000  -0.00000000   0.00006219            0.00       -0.00        9.15


     Writing output data file ./GaH3_experimental.save/

     init_run     :      1.62s CPU      0.77s WALL (       1 calls)
     electrons    :     49.17s CPU     13.60s WALL (       1 calls)
     forces       :      0.83s CPU      0.23s WALL (       1 calls)
     stress       :      2.21s CPU      0.73s WALL (       1 calls)

     Called by init_run:
     wfcinit      :      0.82s CPU      0.21s WALL (       1 calls)
     potinit      :      0.14s CPU      0.14s WALL (       1 calls)
     hinit0       :      0.57s CPU      0.36s WALL (       1 calls)

     Called by electrons:
     c_bands      :     35.41s CPU      8.90s WALL (      14 calls)
     sum_band     :      9.17s CPU      2.34s WALL (      14 calls)
     v_of_rho     :      1.10s CPU      0.32s WALL (      14 calls)
     newd         :      1.35s CPU      0.68s WALL (      14 calls)
     PAW_pot      :      2.10s CPU      1.46s WALL (      14 calls)
     mix_rho      :      0.15s CPU      0.05s WALL (      14 calls)

     Called by c_bands:
     init_us_2    :      1.08s CPU      0.25s WALL (     496 calls)
     cegterg      :     32.74s CPU      8.31s WALL (     224 calls)

     Called by *egterg:
     cdiaghg      :      0.60s CPU      0.14s WALL (    1053 calls)
     h_psi        :     30.46s CPU      7.81s WALL (    1085 calls)
     s_psi        :      0.33s CPU      0.10s WALL (    1085 calls)
     g_psi        :      0.32s CPU      0.07s WALL (     845 calls)

     Called by h_psi:
     h_psi:calbec :      0.79s CPU      0.29s WALL (    1085 calls)
     vloc_psi     :     28.62s CPU      7.15s WALL (    1085 calls)
     add_vuspsi   :      0.90s CPU      0.33s WALL (    1085 calls)

     General routines
     calbec       :      0.97s CPU      0.35s WALL (    1389 calls)
     fft          :      0.49s CPU      0.16s WALL (     206 calls)
     ffts         :      0.03s CPU      0.01s WALL (      28 calls)
     fftw         :     28.90s CPU      7.34s WALL (   18452 calls)
     interpolate  :      0.01s CPU      0.02s WALL (      14 calls)

     Parallel routines

     PWSCF        :     53.97s CPU     15.44s WALL


   This run was terminated on:  19:39:50  28Nov2023            

=------------------------------------------------------------------------------=
   JOB DONE.
=------------------------------------------------------------------------------=
