
     Program PWSCF v.6.7MaX starts on 28Nov2023 at 19:42:16 

     This program is part of the open-source Quantum ESPRESSO suite
     for quantum simulation of materials; please cite
         "P. Giannozzi et al., J. Phys.:Condens. Matter 21 395502 (2009);
         "P. Giannozzi et al., J. Phys.:Condens. Matter 29 465901 (2017);
          URL http://www.quantum-espresso.org", 
     in publications or presentations arising from this work. More details at
     http://www.quantum-espresso.org/quote

     Parallel version (MPI), running on     1 processors

     MPI processes distributed on     1 nodes
     Reading input from NaBH4_tg_sym.in

     Current dimensions of program PWSCF are:
     Max number of different atomic species (ntypx) = 10
     Max number of k-points (npk) =  40000
     Max angular momentum in pseudopotentials (lmaxx) =  3

     IMPORTANT: XC functional enforced from input :
     Exchange-correlation= PBE
                           (   1   4   3   4   0   0   0)
     Any further DFT definition will be discarded
     Please, verify this is what you really want


     Subspace diagonalization in iterative solution of the eigenvalue problem:
     a serial algorithm will be used

     Message from routine setup:
     using ibrav=0 with symmetry is DISCOURAGED, use correct ibrav instead

     G-vector sticks info
     --------------------
     sticks:   dense  smooth     PW     G-vecs:    dense   smooth      PW
     Sum        1993    1597    437                88907    63663    9491



     bravais-lattice index     =            0
     lattice parameter (alat)  =       8.1620  a.u.
     unit-cell volume          =     724.7351 (a.u.)^3
     number of atoms/cell      =           12
     number of atomic types    =            3
     number of electrons       =        32.00
     number of Kohn-Sham states=           20
     kinetic-energy cutoff     =      75.0000  Ry
     charge density cutoff     =     375.0000  Ry
     scf convergence threshold =      1.0E-08
     mixing beta               =       0.7000
     number of iterations used =            8  plain     mixing
     Exchange-correlation= PBE
                           (   1   4   3   4   0   0   0)

     celldm(1)=   8.161954  celldm(2)=   0.000000  celldm(3)=   0.000000
     celldm(4)=   0.000000  celldm(5)=   0.000000  celldm(6)=   0.000000

     crystal axes: (cart. coord. in units of alat)
               a(1) = (   1.000000   0.000000   0.000000 )  
               a(2) = (   0.000000   1.000000   0.000000 )  
               a(3) = (   0.000000   0.000000   1.332898 )  

     reciprocal axes: (cart. coord. in units 2 pi/alat)
               b(1) = (  1.000000  0.000000  0.000000 )  
               b(2) = (  0.000000  1.000000  0.000000 )  
               b(3) = (  0.000000  0.000000  0.750245 )  


     PseudoPot. # 1 for H  read from file:
     ../../pseudopotentials/H.pbe-rrkjus_psl.1.0.0.UPF
     MD5 check sum: f52b6d4d1c606e5624b1dc7b2218f220
     Pseudo is Ultrasoft, Zval =  1.0
     Generated using "atomic" code by A. Dal Corso  v.5.1
     Using radial grid of  929 points,  2 beta functions with: 
                l(1) =   0
                l(2) =   0
     Q(r) pseudized with 0 coefficients 


     PseudoPot. # 2 for B  read from file:
     ../../pseudopotentials/b_pbe_v1.4.uspp.F.UPF
     MD5 check sum: cc6de2960df11db49a60e589f9ebb39b
     Pseudo is Ultrasoft + core correction, Zval =  3.0
     Generated by new atomic code, or converted to UPF format
     Using radial grid of  781 points,  4 beta functions with: 
                l(1) =   0
                l(2) =   0
                l(3) =   1
                l(4) =   1
     Q(r) pseudized with  8 coefficients,  rinner =    1.100   1.100   1.100


     PseudoPot. # 3 for Na read from file:
     ../../pseudopotentials/na_pbe_v1.5.uspp.F.UPF
     MD5 check sum: 44600605ef58000f06b90626533354dc
     Pseudo is Ultrasoft, Zval =  9.0
     Generated by new atomic code, or converted to UPF format
     Using radial grid of  819 points,  5 beta functions with: 
                l(1) =   0
                l(2) =   0
                l(3) =   1
                l(4) =   1
                l(5) =   2
     Q(r) pseudized with  8 coefficients,  rinner =    1.250   1.250   1.250
                                                       1.250   1.250

     atomic species   valence    mass     pseudopotential
        H              1.00     1.00750     H ( 1.00)
        B              3.00    10.81350     B ( 1.00)
        Na             9.00    22.98900     Na( 1.00)

      8 Sym. Ops. (no inversion) found ( 4 have fractional translation)



   Cartesian axes

     site n.     atom                  positions (alat units)
         1           Na  tau(   1) = (   0.0000000   0.0000000   0.0000000  )
         2           Na  tau(   2) = (   0.5000000   0.5000000   0.6664489  )
         3           B   tau(   3) = (   0.0000000   0.0000000   0.6664489  )
         4           B   tau(   4) = (   0.5000000   0.5000000   0.0000000  )
         5           H   tau(   5) = (   0.0189981   0.7695100   0.5043724  )
         6           H   tau(   6) = (   0.4810019   0.2695100   0.1620766  )
         7           H   tau(   7) = (   0.7304900   0.4810019   1.1708213  )
         8           H   tau(   8) = (   0.7695100   0.9810019   0.8285255  )
         9           H   tau(   9) = (   0.9810019   0.2304900   0.5043724  )
        10           H   tau(  10) = (   0.2304900   0.0189981   0.8285255  )
        11           H   tau(  11) = (   0.5189981   0.7304900   0.1620766  )
        12           H   tau(  12) = (   0.2695100   0.5189981   1.1708213  )

     number of k points=    36  Marzari-Vanderbilt smearing, width (Ry)=  0.0050
                       cart. coord. in units 2pi/alat
        k(    1) = (   0.0000000   0.0000000   0.0000000), wk =   0.0133333
        k(    2) = (   0.0000000   0.0000000   0.1500490), wk =   0.0266667
        k(    3) = (   0.0000000   0.0000000   0.3000980), wk =   0.0266667
        k(    4) = (   0.0000000   0.2000000   0.0000000), wk =   0.0266667
        k(    5) = (   0.0000000   0.2000000   0.1500490), wk =   0.0533333
        k(    6) = (   0.0000000   0.2000000   0.3000980), wk =   0.0533333
        k(    7) = (   0.0000000   0.4000000   0.0000000), wk =   0.0266667
        k(    8) = (   0.0000000   0.4000000   0.1500490), wk =   0.0533333
        k(    9) = (   0.0000000   0.4000000   0.3000980), wk =   0.0533333
        k(   10) = (   0.1666667   0.0000000   0.0000000), wk =   0.0266667
        k(   11) = (   0.1666667   0.0000000   0.1500490), wk =   0.0533333
        k(   12) = (   0.1666667   0.0000000   0.3000980), wk =   0.0533333
        k(   13) = (   0.1666667   0.2000000   0.0000000), wk =   0.0533333
        k(   14) = (   0.1666667   0.2000000   0.1500490), wk =   0.1066667
        k(   15) = (   0.1666667   0.2000000   0.3000980), wk =   0.1066667
        k(   16) = (   0.1666667   0.4000000   0.0000000), wk =   0.0533333
        k(   17) = (   0.1666667   0.4000000   0.1500490), wk =   0.1066667
        k(   18) = (   0.1666667   0.4000000   0.3000980), wk =   0.1066667
        k(   19) = (   0.3333333   0.0000000   0.0000000), wk =   0.0266667
        k(   20) = (   0.3333333   0.0000000   0.1500490), wk =   0.0533333
        k(   21) = (   0.3333333   0.0000000   0.3000980), wk =   0.0533333
        k(   22) = (   0.3333333   0.2000000   0.0000000), wk =   0.0533333
        k(   23) = (   0.3333333   0.2000000   0.1500490), wk =   0.1066667
        k(   24) = (   0.3333333   0.2000000   0.3000980), wk =   0.1066667
        k(   25) = (   0.3333333   0.4000000   0.0000000), wk =   0.0533333
        k(   26) = (   0.3333333   0.4000000   0.1500490), wk =   0.1066667
        k(   27) = (   0.3333333   0.4000000   0.3000980), wk =   0.1066667
        k(   28) = (  -0.5000000   0.0000000   0.0000000), wk =   0.0133333
        k(   29) = (  -0.5000000   0.0000000   0.1500490), wk =   0.0266667
        k(   30) = (  -0.5000000   0.0000000   0.3000980), wk =   0.0266667
        k(   31) = (  -0.5000000   0.2000000   0.0000000), wk =   0.0266667
        k(   32) = (  -0.5000000   0.2000000   0.1500490), wk =   0.0533333
        k(   33) = (  -0.5000000   0.2000000   0.3000980), wk =   0.0533333
        k(   34) = (  -0.5000000   0.4000000   0.0000000), wk =   0.0266667
        k(   35) = (  -0.5000000   0.4000000   0.1500490), wk =   0.0533333
        k(   36) = (  -0.5000000   0.4000000   0.3000980), wk =   0.0533333

     Dense  grid:    88907 G-vectors     FFT dimensions: (  54,  54,  72)

     Smooth grid:    63663 G-vectors     FFT dimensions: (  48,  48,  60)

     Estimated max dynamical RAM per process >     331.08 MB

     Initial potential from superposition of free atoms

     starting charge   31.98678, renormalised to   32.00000
     Starting wfcs are   26 randomized atomic wfcs

     total cpu time spent up to now is        4.2 secs

     Self-consistent Calculation

     iteration #  1     ecut=    75.00 Ry     beta= 0.70
     Davidson diagonalization with overlap
     ethr =  1.00E-02,  avg # of iterations =  3.1

     total cpu time spent up to now is       13.4 secs

     total energy              =    -212.84158922 Ry
     estimated scf accuracy    <       1.11937688 Ry

     iteration #  2     ecut=    75.00 Ry     beta= 0.70
     Davidson diagonalization with overlap
     ethr =  3.50E-03,  avg # of iterations =  2.0

     total cpu time spent up to now is       22.1 secs

     total energy              =    -213.06981134 Ry
     estimated scf accuracy    <       0.17214726 Ry

     iteration #  3     ecut=    75.00 Ry     beta= 0.70
     Davidson diagonalization with overlap
     ethr =  5.38E-04,  avg # of iterations =  2.5

     total cpu time spent up to now is       31.3 secs

     total energy              =    -213.09888521 Ry
     estimated scf accuracy    <       0.00322126 Ry

     iteration #  4     ecut=    75.00 Ry     beta= 0.70
     Davidson diagonalization with overlap
     ethr =  1.01E-05,  avg # of iterations =  7.4

     total cpu time spent up to now is       44.0 secs

     total energy              =    -213.09982753 Ry
     estimated scf accuracy    <       0.00094513 Ry

     iteration #  5     ecut=    75.00 Ry     beta= 0.70
     Davidson diagonalization with overlap
     ethr =  2.95E-06,  avg # of iterations =  2.6

     total cpu time spent up to now is       53.3 secs

     total energy              =    -213.09995479 Ry
     estimated scf accuracy    <       0.00001611 Ry

     iteration #  6     ecut=    75.00 Ry     beta= 0.70
     Davidson diagonalization with overlap
     ethr =  5.03E-08,  avg # of iterations =  3.9

     total cpu time spent up to now is       63.9 secs

     total energy              =    -213.09996379 Ry
     estimated scf accuracy    <       0.00002081 Ry

     iteration #  7     ecut=    75.00 Ry     beta= 0.70
     Davidson diagonalization with overlap
     ethr =  5.03E-08,  avg # of iterations =  2.3

     total cpu time spent up to now is       72.4 secs

     total energy              =    -213.09996715 Ry
     estimated scf accuracy    <       0.00000003 Ry

     iteration #  8     ecut=    75.00 Ry     beta= 0.70
     Davidson diagonalization with overlap
     ethr =  8.35E-11,  avg # of iterations =  5.9

     total cpu time spent up to now is       86.6 secs

     total energy              =    -213.09996724 Ry
     estimated scf accuracy    <       0.00000005 Ry

     iteration #  9     ecut=    75.00 Ry     beta= 0.70
     Davidson diagonalization with overlap
     ethr =  8.35E-11,  avg # of iterations =  2.0

     total cpu time spent up to now is       95.3 secs

     End of self-consistent calculation

          k = 0.0000 0.0000 0.0000 (  7941 PWs)   bands (ev):

   -50.1587 -50.1582 -22.0820 -22.0820 -22.0776 -22.0766 -22.0766 -22.0658
    -8.0714  -6.7225  -3.2592  -1.9707  -1.9707  -1.4551  -0.9955  -0.9955
     5.5202   5.8578   6.1142   7.9218

          k = 0.0000 0.0000 0.1500 (  7934 PWs)   bands (ev):

   -50.1586 -50.1582 -22.0814 -22.0814 -22.0771 -22.0771 -22.0766 -22.0670
    -7.9673  -6.8893  -3.0734  -1.9355  -1.9355  -1.6297  -1.0473  -1.0473
     5.3621   6.2688   6.3929   7.6295

          k = 0.0000 0.0000 0.3001 (  7974 PWs)   bands (ev):

   -50.1585 -50.1584 -22.0801 -22.0801 -22.0784 -22.0784 -22.0739 -22.0702
    -7.6773  -7.2729  -2.6173  -2.0747  -1.8688  -1.8688  -1.1406  -1.1406
     5.5299   6.0438   7.1772   7.4477

          k = 0.0000 0.2000 0.0000 (  7921 PWs)   bands (ev):

   -50.1586 -50.1582 -22.0833 -22.0812 -22.0789 -22.0768 -22.0763 -22.0667
    -7.8892  -6.7383  -3.1013  -2.4197  -1.8753  -1.4913  -1.4384  -1.0829
     5.9349   6.3117   6.5769   7.4252

          k = 0.0000 0.2000 0.1500 (  7963 PWs)   bands (ev):

   -50.1586 -50.1583 -22.0834 -22.0808 -22.0797 -22.0772 -22.0750 -22.0674
    -7.7933  -6.8651  -3.0523  -2.3076  -1.8844  -1.8451  -1.2106  -1.1220
     5.8637   6.4023   6.9464   7.1516

          k = 0.0000 0.2000 0.3001 (  7951 PWs)   bands (ev):

   -50.1585 -50.1584 -22.0830 -22.0814 -22.0797 -22.0783 -22.0721 -22.0693
    -7.5304  -7.1776  -2.8548  -2.4000  -2.0609  -1.7881  -1.1968  -1.1440
     5.7654   6.7189   6.9331   7.6069

          k = 0.0000 0.4000 0.0000 (  7956 PWs)   bands (ev):

   -50.1584 -50.1583 -22.0849 -22.0832 -22.0795 -22.0778 -22.0731 -22.0694
    -7.4223  -6.9391  -2.8169  -2.7846  -2.0989  -1.8605  -1.6251  -1.3200
     6.3833   6.9587   6.9736   7.2615

          k = 0.0000 0.4000 0.1500 (  7960 PWs)   bands (ev):

   -50.1584 -50.1583 -22.0857 -22.0842 -22.0793 -22.0779 -22.0719 -22.0691
    -7.3601  -6.9616  -3.1560  -2.8186  -2.0280  -1.6116  -1.5800  -1.3312
     6.1945   6.4757   7.1746   7.8226

          k = 0.0000 0.4000 0.3001 (  7965 PWs)   bands (ev):

   -50.1584 -50.1583 -22.0865 -22.0859 -22.0789 -22.0783 -22.0700 -22.0689
    -7.2073  -7.0500  -3.3367  -3.1582  -1.7662  -1.5826  -1.3804  -1.3326
     5.8130   6.2600   7.7535   8.1447

          k = 0.1667 0.0000 0.0000 (  7911 PWs)   bands (ev):

   -50.1586 -50.1582 -22.0829 -22.0814 -22.0783 -22.0767 -22.0767 -22.0664
    -7.9436  -6.7301  -3.1478  -2.3154  -1.9038  -1.4641  -1.3181  -1.0567
     5.8463   6.1904   6.4540   7.4483

          k = 0.1667 0.0000 0.1500 (  7960 PWs)   bands (ev):

   -50.1586 -50.1583 -22.0829 -22.0810 -22.0790 -22.0772 -22.0754 -22.0673
    -7.8451  -6.8691  -3.0500  -2.2297  -1.8722  -1.8000  -1.1692  -1.0995
     5.7419   6.4269   6.7565   7.1642

          k = 0.1667 0.0000 0.3001 (  7955 PWs)   bands (ev):

   -50.1585 -50.1584 -22.0823 -22.0806 -22.0798 -22.0783 -22.0725 -22.0695
    -7.5733  -7.2039  -2.7739  -2.2857  -2.0602  -1.8121  -1.1795  -1.1358
     5.7414   6.5085   7.0057   7.5860

          k = 0.1667 0.2000 0.0000 (  7938 PWs)   bands (ev):

   -50.1586 -50.1582 -22.0836 -22.0814 -22.0800 -22.0775 -22.0755 -22.0673
    -7.7687  -6.7316  -2.9919  -2.5054  -2.0613  -1.6951  -1.4682  -1.1737
     6.2118   6.4923   6.6194   7.3578

          k = 0.1667 0.2000 0.1500 (  7946 PWs)   bands (ev):

   -50.1585 -50.1583 -22.0831 -22.0819 -22.0806 -22.0780 -22.0741 -22.0677
    -7.6783  -6.8386  -2.9654  -2.4341  -2.0512  -1.9756  -1.2935  -1.2083
     6.3400   6.4450   6.9701   7.1693

          k = 0.1667 0.2000 0.3001 (  7953 PWs)   bands (ev):

   -50.1584 -50.1583 -22.0826 -22.0818 -22.0813 -22.0795 -22.0715 -22.0692
    -7.4329  -7.1120  -2.8041  -2.4570  -2.2467  -2.0467  -1.2214  -1.2014
     6.3337   6.6330   7.3069   7.4651

          k = 0.1667 0.4000 0.0000 (  7953 PWs)   bands (ev):

   -50.1584 -50.1583 -22.0853 -22.0839 -22.0799 -22.0784 -22.0727 -22.0696
    -7.3262  -6.8886  -2.8623  -2.7108  -2.2901  -2.0323  -1.6057  -1.3968
     6.0550   6.6697   7.3594   7.4719

          k = 0.1667 0.4000 0.1500 (  7952 PWs)   bands (ev):

   -50.1584 -50.1583 -22.0855 -22.0844 -22.0802 -22.0788 -22.0718 -22.0693
    -7.2684  -6.9081  -3.0712  -2.7828  -2.2743  -1.9114  -1.5372  -1.3914
     6.1277   6.6492   7.1813   7.8116

          k = 0.1667 0.4000 0.3001 (  7952 PWs)   bands (ev):

   -50.1584 -50.1583 -22.0858 -22.0853 -22.0802 -22.0795 -22.0701 -22.0693
    -7.1279  -6.9862  -3.2178  -3.0639  -2.0971  -1.8967  -1.4290  -1.3797
     6.1971   6.6180   7.4921   7.8223

          k = 0.3333 0.0000 0.0000 (  7946 PWs)   bands (ev):

   -50.1585 -50.1583 -22.0846 -22.0819 -22.0801 -22.0774 -22.0743 -22.0684
    -7.5973  -6.8363  -2.8733  -2.7505  -1.9360  -1.7205  -1.7086  -1.2280
     6.2333   6.8050   6.8405   8.0508

          k = 0.3333 0.0000 0.1500 (  7955 PWs)   bands (ev):

   -50.1585 -50.1583 -22.0852 -22.0829 -22.0798 -22.0776 -22.0730 -22.0683
    -7.5195  -6.8966  -3.1341  -2.6181  -2.0966  -1.6998  -1.4340  -1.2490
     6.1703   6.4003   7.1347   7.7886

          k = 0.3333 0.0000 0.3001 (  7956 PWs)   bands (ev):

   -50.1584 -50.1583 -22.0857 -22.0846 -22.0792 -22.0783 -22.0706 -22.0689
    -7.3165  -7.0740  -3.2163  -2.9332  -1.8966  -1.6600  -1.3006  -1.2468
     5.7809   6.4911   7.5623   7.8768

          k = 0.3333 0.2000 0.0000 (  7947 PWs)   bands (ev):

   -50.1585 -50.1583 -22.0851 -22.0830 -22.0805 -22.0782 -22.0736 -22.0688
    -7.4461  -6.7921  -2.8337  -2.7262  -2.2516  -2.0482  -1.5844  -1.3407
     5.9105   6.7941   7.2685   7.4010

          k = 0.3333 0.2000 0.1500 (  7952 PWs)   bands (ev):

   -50.1584 -50.1583 -22.0849 -22.0835 -22.0811 -22.0787 -22.0724 -22.0688
    -7.3757  -6.8402  -2.9860  -2.6115  -2.4364  -1.9787  -1.4980  -1.3485
     6.0776   6.8932   7.0743   7.7664

          k = 0.3333 0.2000 0.3001 (  7943 PWs)   bands (ev):

   -50.1584 -50.1583 -22.0847 -22.0842 -22.0812 -22.0800 -22.0705 -22.0693
    -7.1951  -6.9865  -3.0512  -2.8299  -2.3229  -2.0512  -1.3826  -1.3402
     6.3403   7.0021   7.2544   7.7731

          k = 0.3333 0.4000 0.0000 (  7918 PWs)   bands (ev):

   -50.1584 -50.1583 -22.0866 -22.0858 -22.0800 -22.0791 -22.0719 -22.0700
    -7.0862  -6.8054  -3.1018  -2.8803  -2.3545  -2.0776  -1.6752  -1.5373
     5.5710   6.1251   6.6389   6.9969

          k = 0.3333 0.4000 0.1500 (  7944 PWs)   bands (ev):

   -50.1583 -50.1583 -22.0859 -22.0855 -22.0809 -22.0798 -22.0714 -22.0701
    -7.0432  -6.8127  -3.0303  -2.8849  -2.5078  -2.1495  -1.6828  -1.5453
     5.8443   6.3520   6.9155   7.2802

          k = 0.3333 0.4000 0.3001 (  7956 PWs)   bands (ev):

   -50.1583 -50.1583 -22.0847 -22.0843 -22.0826 -22.0816 -22.0706 -22.0702
    -6.9436  -6.8535  -2.9224  -2.8729  -2.6265  -2.3952  -1.6675  -1.5952
     6.5612   7.0385   7.4120   7.6324

          k =-0.5000 0.0000 0.0000 (  7966 PWs)   bands (ev):

   -50.1584 -50.1584 -22.0846 -22.0846 -22.0786 -22.0786 -22.0712 -22.0712
    -7.1589  -7.1589  -2.7934  -2.7934  -2.0750  -2.0750  -1.4714  -1.4714
     6.6986   6.6986   7.1349   7.1349

          k =-0.5000 0.0000 0.1500 (  7958 PWs)   bands (ev):

   -50.1584 -50.1584 -22.0855 -22.0855 -22.0786 -22.0786 -22.0704 -22.0704
    -7.1316  -7.1316  -3.0629  -3.0629  -1.8198  -1.8198  -1.4689  -1.4689
     6.3343   6.3343   7.4974   7.4974

          k =-0.5000 0.0000 0.3001 (  7964 PWs)   bands (ev):

   -50.1584 -50.1584 -22.0868 -22.0868 -22.0785 -22.0785 -22.0693 -22.0693
    -7.0855  -7.0855  -3.3542  -3.3542  -1.5580  -1.5580  -1.4598  -1.4598
     5.9706   5.9706   8.0673   8.0674

          k =-0.5000 0.2000 0.0000 (  7962 PWs)   bands (ev):

   -50.1583 -50.1583 -22.0853 -22.0853 -22.0792 -22.0792 -22.0711 -22.0711
    -7.0530  -7.0530  -2.8402  -2.8402  -2.2138  -2.2138  -1.5445  -1.5445
     6.1560   6.1560   7.5107   7.5107

          k =-0.5000 0.2000 0.1500 (  7944 PWs)   bands (ev):

   -50.1583 -50.1583 -22.0855 -22.0855 -22.0796 -22.0796 -22.0705 -22.0705
    -7.0287  -7.0287  -2.9933  -2.9933  -2.1390  -2.1390  -1.5161  -1.5161
     6.2402   6.2402   7.5605   7.5605

          k =-0.5000 0.2000 0.3001 (  7944 PWs)   bands (ev):

   -50.1583 -50.1583 -22.0859 -22.0859 -22.0802 -22.0802 -22.0698 -22.0698
    -6.9882  -6.9882  -3.1964  -3.1964  -2.0430  -2.0430  -1.4930  -1.4930
     6.4352   6.4352   7.6304   7.6306

          k =-0.5000 0.4000 0.0000 (  7920 PWs)   bands (ev):

   -50.1583 -50.1583 -22.0872 -22.0872 -22.0796 -22.0796 -22.0708 -22.0708
    -6.8560  -6.8560  -3.1941  -3.1941  -2.0952  -2.0952  -1.6989  -1.6989
     5.6351   5.6351   6.4347   6.4347

          k =-0.5000 0.4000 0.1500 (  7946 PWs)   bands (ev):

   -50.1583 -50.1583 -22.0865 -22.0865 -22.0804 -22.0804 -22.0709 -22.0709
    -6.8385  -6.8385  -3.1167  -3.1167  -2.2456  -2.2456  -1.7398  -1.7398
     5.9587   5.9587   6.7382   6.7382

          k =-0.5000 0.4000 0.3001 (  7954 PWs)   bands (ev):

   -50.1583 -50.1583 -22.0847 -22.0847 -22.0823 -22.0823 -22.0709 -22.0709
    -6.8096  -6.8096  -2.9137  -2.9137  -2.5423  -2.5423  -1.8259  -1.8259
     6.8095   6.8095   7.3332   7.3332

     the Fermi energy is     0.9588 ev

!    total energy              =    -213.09996724 Ry
     estimated scf accuracy    <          5.1E-09 Ry
     smearing contrib. (-TS)   =       0.00000000 Ry
     internal energy E=F+TS    =    -213.09996724 Ry

     The total energy is F=E-TS. E is the sum of the following terms:
     one-electron contribution =    -166.07901734 Ry
     hartree contribution      =      89.29546917 Ry
     xc contribution           =     -40.54725919 Ry
     ewald contribution        =     -95.76915988 Ry

     convergence has been achieved in   9 iterations

     Forces acting on atoms (cartesian axes, Ry/au):

     atom    1 type  3   force =     0.00000000    0.00000000    0.00000000
     atom    2 type  3   force =     0.00000000    0.00000000    0.00000000
     atom    3 type  2   force =     0.00000000    0.00000000    0.00000000
     atom    4 type  2   force =     0.00000000    0.00000000    0.00000000
     atom    5 type  1   force =    -0.00024418   -0.00261823   -0.00081591
     atom    6 type  1   force =     0.00024418   -0.00261823    0.00081591
     atom    7 type  1   force =     0.00261823    0.00024418   -0.00081591
     atom    8 type  1   force =    -0.00261823    0.00024418    0.00081591
     atom    9 type  1   force =     0.00024418    0.00261823   -0.00081591
     atom   10 type  1   force =     0.00261823   -0.00024418    0.00081591
     atom   11 type  1   force =    -0.00024418    0.00261823    0.00081591
     atom   12 type  1   force =    -0.00261823   -0.00024418   -0.00081591

     Total force =     0.007787     Total SCF correction =     0.000035


     Computing stress (Cartesian axis) and pressure

          total   stress  (Ry/bohr**3)                   (kbar)     P=       12.81
   0.00007761   0.00000000   0.00000000           11.42        0.00        0.00
   0.00000000   0.00007761   0.00000000            0.00       11.42        0.00
   0.00000000   0.00000000   0.00010609            0.00        0.00       15.61


     Writing output data file ./NaBH4_experimental.save/

     init_run     :     14.25s CPU      4.16s WALL (       1 calls)
     electrons    :    378.30s CPU     91.10s WALL (       1 calls)
     forces       :      4.02s CPU      1.06s WALL (       1 calls)
     stress       :     22.23s CPU      6.67s WALL (       1 calls)

     Called by init_run:
     wfcinit      :     13.14s CPU      3.35s WALL (       1 calls)
     potinit      :      0.16s CPU      0.18s WALL (       1 calls)
     hinit0       :      0.39s CPU      0.40s WALL (       1 calls)

     Called by electrons:
     c_bands      :    314.33s CPU     73.39s WALL (       9 calls)
     sum_band     :     58.89s CPU     15.32s WALL (       9 calls)
     v_of_rho     :      0.58s CPU      0.61s WALL (      10 calls)
     newd         :      4.79s CPU      1.83s WALL (      10 calls)
     mix_rho      :      0.07s CPU      0.10s WALL (       9 calls)

     Called by c_bands:
     init_us_2    :     13.45s CPU      2.64s WALL (     756 calls)
     cegterg      :    291.65s CPU     68.05s WALL (     324 calls)

     Called by *egterg:
     cdiaghg      :      5.37s CPU      0.63s WALL (    1462 calls)
     h_psi        :    249.16s CPU     64.46s WALL (    1498 calls)
     s_psi        :      6.74s CPU      0.86s WALL (    1498 calls)
     g_psi        :      5.58s CPU      0.70s WALL (    1138 calls)

     Called by h_psi:
     h_psi:calbec :      8.99s CPU      2.34s WALL (    1498 calls)
     vloc_psi     :    230.78s CPU     60.71s WALL (    1498 calls)
     add_vuspsi   :      7.69s CPU      1.10s WALL (    1498 calls)

     General routines
     calbec       :     12.70s CPU      3.36s WALL (    2002 calls)
     fft          :      0.31s CPU      0.29s WALL (     153 calls)
     ffts         :      0.22s CPU      0.07s WALL (      19 calls)
     fftw         :    228.92s CPU     60.87s WALL (   46024 calls)
     interpolate  :      0.06s CPU      0.06s WALL (      10 calls)

     Parallel routines

     PWSCF        :   6m59.15s CPU   1m43.22s WALL


   This run was terminated on:  19:44: 0  28Nov2023            

=------------------------------------------------------------------------------=
   JOB DONE.
=------------------------------------------------------------------------------=
