
     Program PWSCF v.6.7MaX starts on 28Nov2023 at 19:48: 5 

     This program is part of the open-source Quantum ESPRESSO suite
     for quantum simulation of materials; please cite
         "P. Giannozzi et al., J. Phys.:Condens. Matter 21 395502 (2009);
         "P. Giannozzi et al., J. Phys.:Condens. Matter 29 465901 (2017);
          URL http://www.quantum-espresso.org", 
     in publications or presentations arising from this work. More details at
     http://www.quantum-espresso.org/quote

     Parallel version (MPI), running on     1 processors

     MPI processes distributed on     1 nodes
     Reading input from NaGaH4_sym.in

     Current dimensions of program PWSCF are:
     Max number of different atomic species (ntypx) = 10
     Max number of k-points (npk) =  40000
     Max angular momentum in pseudopotentials (lmaxx) =  3
     file Ga.pbe-dn-kjpaw_psl.1.0.0.UPF: wavefunction(s)  4S renormalized

     IMPORTANT: XC functional enforced from input :
     Exchange-correlation= PBE
                           (   1   4   3   4   0   0   0)
     Any further DFT definition will be discarded
     Please, verify this is what you really want


     Subspace diagonalization in iterative solution of the eigenvalue problem:
     a serial algorithm will be used

     Message from routine setup:
     using ibrav=0 with symmetry is DISCOURAGED, use correct ibrav instead

     G-vector sticks info
     --------------------
     sticks:   dense  smooth     PW     G-vecs:    dense   smooth      PW
     Sum        2341    1873    519               127907    91433   13621



     bravais-lattice index     =            0
     lattice parameter (alat)  =      13.1656  a.u.
     unit-cell volume          =    1042.5457 (a.u.)^3
     number of atoms/cell      =           12
     number of atomic types    =            3
     number of electrons       =        52.00
     number of Kohn-Sham states=           31
     kinetic-energy cutoff     =      75.0000  Ry
     charge density cutoff     =     375.0000  Ry
     scf convergence threshold =      1.0E-08
     mixing beta               =       0.7000
     number of iterations used =            8  plain     mixing
     Exchange-correlation= PBE
                           (   1   4   3   4   0   0   0)

     celldm(1)=  13.165552  celldm(2)=   0.000000  celldm(3)=   0.000000
     celldm(4)=   0.000000  celldm(5)=   0.000000  celldm(6)=   0.000000

     crystal axes: (cart. coord. in units of alat)
               a(1) = (   0.500000  -0.451541   0.000000 )  
               a(2) = (   0.500000   0.451541   0.000000 )  
               a(3) = (   0.000000   0.000000   1.011767 )  

     reciprocal axes: (cart. coord. in units 2 pi/alat)
               b(1) = (  1.000000 -1.107318  0.000000 )  
               b(2) = (  1.000000  1.107318 -0.000000 )  
               b(3) = ( -0.000000  0.000000  0.988370 )  


     PseudoPot. # 1 for H  read from file:
     ../../pseudopotentials/H.pbe-rrkjus_psl.1.0.0.UPF
     MD5 check sum: f52b6d4d1c606e5624b1dc7b2218f220
     Pseudo is Ultrasoft, Zval =  1.0
     Generated using "atomic" code by A. Dal Corso  v.5.1
     Using radial grid of  929 points,  2 beta functions with: 
                l(1) =   0
                l(2) =   0
     Q(r) pseudized with 0 coefficients 


     PseudoPot. # 2 for Ga read from file:
     ../../pseudopotentials/Ga.pbe-dn-kjpaw_psl.1.0.0.UPF
     MD5 check sum: a27b4342b1af7e5f338de752e9ed7044
     Pseudo is Projector augmented-wave + core cor, Zval = 13.0
     Generated using "atomic" code by A. Dal Corso  v.5.1
     Shape of augmentation charge: PSQ
     Using radial grid of 1205 points,  6 beta functions with: 
                l(1) =   0
                l(2) =   0
                l(3) =   1
                l(4) =   1
                l(5) =   2
                l(6) =   2
     Q(r) pseudized with 0 coefficients 


     PseudoPot. # 3 for Na read from file:
     ../../pseudopotentials/na_pbe_v1.5.uspp.F.UPF
     MD5 check sum: 44600605ef58000f06b90626533354dc
     Pseudo is Ultrasoft, Zval =  9.0
     Generated by new atomic code, or converted to UPF format
     Using radial grid of  819 points,  5 beta functions with: 
                l(1) =   0
                l(2) =   0
                l(3) =   1
                l(4) =   1
                l(5) =   2
     Q(r) pseudized with  8 coefficients,  rinner =    1.250   1.250   1.250
                                                       1.250   1.250

     atomic species   valence    mass     pseudopotential
        H              1.00     1.00750     H ( 1.00)
        Ga            13.00    69.72300     Ga( 1.00)
        Na             9.00    22.98900     Na( 1.00)

      8 Sym. Ops., with inversion, found ( 4 have fractional translation)



   Cartesian axes

     site n.     atom                  positions (alat units)
         1           Ga  tau(   1) = (   0.5000000  -0.3087903   0.7588249  )
         2           Ga  tau(   2) = (   0.5000000   0.3087903   0.2529416  )
         3           Na  tau(   3) = (   0.5000000  -0.1428599   0.2529416  )
         4           Na  tau(   4) = (   0.5000000   0.1428599   0.7588249  )
         5           H   tau(   5) = (   0.5000000  -0.1716432   0.5776593  )
         6           H   tau(   6) = (   0.5000000  -0.1716432   0.9399905  )
         7           H   tau(   7) = (   0.5000000   0.1716432   0.0717760  )
         8           H   tau(   8) = (   0.5000000   0.1716432   0.4341072  )
         9           H   tau(   9) = (   0.1835444   0.0081447   0.7588249  )
        10           H   tau(  10) = (   0.1835444  -0.0081447   0.2529416  )
        11           H   tau(  11) = (   0.8164556  -0.0081447   0.2529416  )
        12           H   tau(  12) = (   0.8164556   0.0081447   0.7588249  )

     number of k points=    52  Marzari-Vanderbilt smearing, width (Ry)=  0.0050
                       cart. coord. in units 2pi/alat
        k(    1) = (   0.0000000   0.0000000   0.0000000), wk =   0.0092593
        k(    2) = (   0.0000000   0.0000000   0.1647284), wk =   0.0185185
        k(    3) = (   0.0000000   0.0000000   0.3294568), wk =   0.0185185
        k(    4) = (   0.0000000   0.0000000  -0.4941852), wk =   0.0092593
        k(    5) = (   0.1666667   0.1845530   0.0000000), wk =   0.0370370
        k(    6) = (   0.1666667   0.1845530   0.1647284), wk =   0.0740741
        k(    7) = (   0.1666667   0.1845530   0.3294568), wk =   0.0740741
        k(    8) = (   0.1666667   0.1845530  -0.4941852), wk =   0.0370370
        k(    9) = (   0.3333333   0.3691060   0.0000000), wk =   0.0370370
        k(   10) = (   0.3333333   0.3691060   0.1647284), wk =   0.0740741
        k(   11) = (   0.3333333   0.3691060   0.3294568), wk =   0.0740741
        k(   12) = (   0.3333333   0.3691060  -0.4941852), wk =   0.0370370
        k(   13) = (  -0.5000000  -0.5536591   0.0000000), wk =   0.0185185
        k(   14) = (  -0.5000000  -0.5536591   0.1647284), wk =   0.0370370
        k(   15) = (  -0.5000000  -0.5536591   0.3294568), wk =   0.0370370
        k(   16) = (  -0.5000000  -0.5536591  -0.4941852), wk =   0.0185185
        k(   17) = (   0.3333333   0.0000000   0.0000000), wk =   0.0185185
        k(   18) = (   0.3333333   0.0000000   0.1647284), wk =   0.0370370
        k(   19) = (   0.3333333   0.0000000   0.3294568), wk =   0.0370370
        k(   20) = (   0.3333333   0.0000000  -0.4941852), wk =   0.0185185
        k(   21) = (   0.5000000   0.1845530   0.0000000), wk =   0.0370370
        k(   22) = (   0.5000000   0.1845530   0.1647284), wk =   0.0740741
        k(   23) = (   0.5000000   0.1845530   0.3294568), wk =   0.0740741
        k(   24) = (   0.5000000   0.1845530  -0.4941852), wk =   0.0370370
        k(   25) = (  -0.3333333  -0.7382121   0.0000000), wk =   0.0370370
        k(   26) = (  -0.3333333  -0.7382121   0.1647284), wk =   0.0740741
        k(   27) = (  -0.3333333  -0.7382121   0.3294568), wk =   0.0740741
        k(   28) = (  -0.3333333  -0.7382121  -0.4941852), wk =   0.0370370
        k(   29) = (  -0.1666667  -0.5536591   0.0000000), wk =   0.0370370
        k(   30) = (  -0.1666667  -0.5536591   0.1647284), wk =   0.0740741
        k(   31) = (  -0.1666667  -0.5536591   0.3294568), wk =   0.0740741
        k(   32) = (  -0.1666667  -0.5536591  -0.4941852), wk =   0.0370370
        k(   33) = (   0.0000000  -0.3691060   0.0000000), wk =   0.0185185
        k(   34) = (   0.0000000  -0.3691060   0.1647284), wk =   0.0370370
        k(   35) = (   0.0000000  -0.3691060   0.3294568), wk =   0.0370370
        k(   36) = (   0.0000000  -0.3691060  -0.4941852), wk =   0.0185185
        k(   37) = (   0.6666667   0.0000000   0.0000000), wk =   0.0185185
        k(   38) = (   0.6666667   0.0000000   0.1647284), wk =   0.0370370
        k(   39) = (   0.6666667   0.0000000   0.3294568), wk =   0.0370370
        k(   40) = (   0.6666667   0.0000000  -0.4941852), wk =   0.0185185
        k(   41) = (  -0.1666667  -0.9227651   0.0000000), wk =   0.0370370
        k(   42) = (  -0.1666667  -0.9227651   0.1647284), wk =   0.0740741
        k(   43) = (  -0.1666667  -0.9227651   0.3294568), wk =   0.0740741
        k(   44) = (  -0.1666667  -0.9227651  -0.4941852), wk =   0.0370370
        k(   45) = (  -0.0000000  -0.7382121   0.0000000), wk =   0.0185185
        k(   46) = (  -0.0000000  -0.7382121   0.1647284), wk =   0.0370370
        k(   47) = (  -0.0000000  -0.7382121   0.3294568), wk =   0.0370370
        k(   48) = (  -0.0000000  -0.7382121  -0.4941852), wk =   0.0185185
        k(   49) = (  -1.0000000   0.0000000   0.0000000), wk =   0.0092593
        k(   50) = (  -1.0000000   0.0000000   0.1647284), wk =   0.0185185
        k(   51) = (  -1.0000000   0.0000000   0.3294568), wk =   0.0185185
        k(   52) = (  -1.0000000   0.0000000  -0.4941852), wk =   0.0092593

     Dense  grid:   127907 G-vectors     FFT dimensions: (  60,  60,  90)

     Smooth grid:    91433 G-vectors     FFT dimensions: (  50,  50,  80)

     Estimated max dynamical RAM per process >     794.87 MB

     Initial potential from superposition of free atoms

     starting charge   51.98143, renormalised to   52.00000
     Starting wfcs are   36 randomized atomic wfcs
     Checking if some PAW data can be deallocated... 

     total cpu time spent up to now is       10.5 secs

     Self-consistent Calculation

     iteration #  1     ecut=    75.00 Ry     beta= 0.70
     Davidson diagonalization with overlap
     ethr =  1.00E-02,  avg # of iterations =  4.4

     Threshold (ethr) on eigenvalues was too large:
     Diagonalizing with lowered threshold

     Davidson diagonalization with overlap
     ethr =  8.45E-04,  avg # of iterations =  5.9

     total cpu time spent up to now is       60.2 secs

     total energy              =    -755.88132138 Ry
     estimated scf accuracy    <       0.47764950 Ry

     iteration #  2     ecut=    75.00 Ry     beta= 0.70
     Davidson diagonalization with overlap
     ethr =  9.19E-04,  avg # of iterations =  2.1

     total cpu time spent up to now is       83.6 secs

     total energy              =    -755.92976561 Ry
     estimated scf accuracy    <       0.00819977 Ry

     iteration #  3     ecut=    75.00 Ry     beta= 0.70
     Davidson diagonalization with overlap
     c_bands:  1 eigenvalues not converged
     c_bands:  1 eigenvalues not converged
     c_bands:  1 eigenvalues not converged
     c_bands:  1 eigenvalues not converged
     c_bands:  1 eigenvalues not converged
     c_bands:  1 eigenvalues not converged
     c_bands:  1 eigenvalues not converged
     c_bands:  1 eigenvalues not converged
     c_bands:  1 eigenvalues not converged
     c_bands:  1 eigenvalues not converged
     c_bands:  1 eigenvalues not converged
     c_bands:  1 eigenvalues not converged
     c_bands:  1 eigenvalues not converged
     c_bands:  1 eigenvalues not converged
     ethr =  1.58E-05,  avg # of iterations = 15.0

     total cpu time spent up to now is      132.6 secs

     total energy              =    -755.96328078 Ry
     estimated scf accuracy    <       0.00474496 Ry

     iteration #  4     ecut=    75.00 Ry     beta= 0.70
     Davidson diagonalization with overlap
     ethr =  9.12E-06,  avg # of iterations =  3.0

     total cpu time spent up to now is      154.8 secs

     total energy              =    -755.96347540 Ry
     estimated scf accuracy    <       0.00167664 Ry

     iteration #  5     ecut=    75.00 Ry     beta= 0.70
     Davidson diagonalization with overlap
     ethr =  3.22E-06,  avg # of iterations =  5.9

     total cpu time spent up to now is      179.9 secs

     total energy              =    -755.96366784 Ry
     estimated scf accuracy    <       0.00000688 Ry

     iteration #  6     ecut=    75.00 Ry     beta= 0.70
     Davidson diagonalization with overlap
     c_bands:  4 eigenvalues not converged
     c_bands:  5 eigenvalues not converged
     c_bands:  2 eigenvalues not converged
     c_bands:  3 eigenvalues not converged
     c_bands:  4 eigenvalues not converged
     c_bands:  1 eigenvalues not converged
     c_bands:  1 eigenvalues not converged
     c_bands:  3 eigenvalues not converged
     c_bands:  1 eigenvalues not converged
     c_bands:  2 eigenvalues not converged
     c_bands:  1 eigenvalues not converged
     c_bands:  2 eigenvalues not converged
     c_bands:  2 eigenvalues not converged
     c_bands:  3 eigenvalues not converged
     c_bands:  2 eigenvalues not converged
     ethr =  1.32E-08,  avg # of iterations = 18.5

     total cpu time spent up to now is      280.5 secs

     total energy              =    -755.96382773 Ry
     estimated scf accuracy    <       0.00000708 Ry

     iteration #  7     ecut=    75.00 Ry     beta= 0.70
     Davidson diagonalization with overlap
     ethr =  1.32E-08,  avg # of iterations =  1.3

     total cpu time spent up to now is      301.7 secs

     total energy              =    -755.96382580 Ry
     estimated scf accuracy    <       0.00000631 Ry

     iteration #  8     ecut=    75.00 Ry     beta= 0.70
     Davidson diagonalization with overlap
     ethr =  1.21E-08,  avg # of iterations =  1.6

     total cpu time spent up to now is      323.8 secs

     total energy              =    -755.96382608 Ry
     estimated scf accuracy    <       0.00000051 Ry

     iteration #  9     ecut=    75.00 Ry     beta= 0.70
     Davidson diagonalization with overlap
     ethr =  9.90E-10,  avg # of iterations =  8.7

     total cpu time spent up to now is      369.8 secs

     total energy              =    -755.96382686 Ry
     estimated scf accuracy    <       0.00000075 Ry

     iteration # 10     ecut=    75.00 Ry     beta= 0.70
     Davidson diagonalization with overlap
     ethr =  9.90E-10,  avg # of iterations =  1.0

     total cpu time spent up to now is      391.2 secs

     total energy              =    -755.96382673 Ry
     estimated scf accuracy    <       0.00000062 Ry

     iteration # 11     ecut=    75.00 Ry     beta= 0.70
     Davidson diagonalization with overlap
     ethr =  9.90E-10,  avg # of iterations =  1.0

     total cpu time spent up to now is      412.2 secs

     total energy              =    -755.96382670 Ry
     estimated scf accuracy    <       0.00000017 Ry

     iteration # 12     ecut=    75.00 Ry     beta= 0.70
     Davidson diagonalization with overlap
     ethr =  3.23E-10,  avg # of iterations =  5.3

     total cpu time spent up to now is      439.8 secs

     End of self-consistent calculation

          k = 0.0000 0.0000 0.0000 ( 11443 PWs)   bands (ev):

   -50.0482 -50.0480 -21.9703 -21.9689 -21.9687 -21.9685 -21.9682 -21.9608
   -12.2441 -12.2435 -12.2416 -12.2371 -12.2273 -12.2248 -12.0973 -12.0947
   -12.0819 -12.0800  -6.5334  -5.5670  -2.0155  -0.8276  -0.7263  -0.6382
    -0.2622  -0.2120   4.7420   5.0879   5.7832   6.2933   6.4704

          k = 0.0000 0.0000 0.1647 ( 11427 PWs)   bands (ev):

   -50.0482 -50.0480 -21.9703 -21.9698 -21.9685 -21.9682 -21.9673 -21.9612
   -12.2440 -12.2433 -12.2418 -12.2379 -12.2268 -12.2247 -12.0971 -12.0949
   -12.0818 -12.0802  -6.4828  -5.6535  -1.8921  -0.8077  -0.7217  -0.6146
    -0.3496  -0.2891   4.8763   5.1384   5.5358   6.1599   6.7412

          k = 0.0000 0.0000 0.3295 ( 11427 PWs)   bands (ev):

   -50.0482 -50.0481 -21.9705 -21.9704 -21.9684 -21.9683 -21.9656 -21.9623
   -12.2435 -12.2427 -12.2422 -12.2397 -12.2257 -12.2245 -12.0966 -12.0953
   -12.0814 -12.0805  -6.3373  -5.8667  -1.5692  -0.7633  -0.7250  -0.6901
    -0.5491  -0.3613   5.1284   5.2912   5.3098   5.8593   6.7214

          k = 0.0000 0.0000-0.4942 ( 11420 PWs)   bands (ev):

   -50.0481 -50.0481 -21.9706 -21.9706 -21.9683 -21.9683 -21.9638 -21.9638
   -12.2429 -12.2429 -12.2415 -12.2415 -12.2248 -12.2248 -12.0960 -12.0960
   -12.0809 -12.0809  -6.1180  -6.1180  -1.1413  -1.1413  -0.7260  -0.7260
    -0.4569  -0.4569   5.2386   5.2386   5.5416   5.5416   7.0291

          k = 0.1667 0.1846 0.0000 ( 11432 PWs)   bands (ev):

   -50.0482 -50.0480 -21.9706 -21.9695 -21.9687 -21.9686 -21.9684 -21.9608
   -12.2432 -12.2422 -12.2398 -12.2377 -12.2268 -12.2242 -12.0972 -12.0945
   -12.0824 -12.0799  -6.4148  -5.5169  -1.9066  -1.4199  -0.7667  -0.6043
    -0.3608  -0.3317   4.7531   5.6142   5.8670   6.4529   6.6826

          k = 0.1667 0.1846 0.1647 ( 11429 PWs)   bands (ev):

   -50.0482 -50.0480 -21.9707 -21.9701 -21.9688 -21.9684 -21.9673 -21.9612
   -12.2432 -12.2420 -12.2400 -12.2384 -12.2262 -12.2240 -12.0970 -12.0947
   -12.0822 -12.0800  -6.3663  -5.5940  -1.8437  -1.3534  -0.8165  -0.6031
    -0.3884  -0.3708   4.8778   5.6940   5.7232   6.4638   6.5616

          k = 0.1667 0.1846 0.3295 ( 11449 PWs)   bands (ev):

   -50.0482 -50.0481 -21.9708 -21.9707 -21.9687 -21.9685 -21.9656 -21.9622
   -12.2428 -12.2416 -12.2405 -12.2401 -12.2251 -12.2239 -12.0965 -12.0952
   -12.0818 -12.0805  -6.2277  -5.7875  -1.6728  -1.2736  -0.8942  -0.5677
    -0.5226  -0.4156   5.1553   5.5425   5.9182   6.2798   6.4543

          k = 0.1667 0.1846-0.4942 ( 11436 PWs)   bands (ev):

   -50.0481 -50.0481 -21.9709 -21.9709 -21.9686 -21.9686 -21.9638 -21.9638
   -12.2418 -12.2418 -12.2410 -12.2410 -12.2242 -12.2242 -12.0958 -12.0958
   -12.0811 -12.0811  -6.0207  -6.0207  -1.4405  -1.4405  -0.7442  -0.7442
    -0.4809  -0.4809   5.3977   5.3977   6.0844   6.0844   6.7255

          k = 0.3333 0.3691 0.0000 ( 11432 PWs)   bands (ev):

   -50.0482 -50.0480 -21.9715 -21.9708 -21.9687 -21.9685 -21.9684 -21.9609
   -12.2424 -12.2392 -12.2387 -12.2368 -12.2252 -12.2227 -12.0971 -12.0942
   -12.0833 -12.0797  -6.1080  -5.4517  -2.1734  -1.6046  -1.2713  -0.6610
    -0.6258  -0.3274   5.0430   5.6877   6.4591   6.5233   7.1711

          k = 0.3333 0.3691 0.1647 ( 11430 PWs)   bands (ev):

   -50.0482 -50.0480 -21.9716 -21.9712 -21.9690 -21.9686 -21.9672 -21.9613
   -12.2426 -12.2399 -12.2385 -12.2369 -12.2246 -12.2225 -12.0969 -12.0944
   -12.0830 -12.0799  -6.0676  -5.4985  -2.2201  -1.6487  -1.2139  -0.6417
    -0.5699  -0.3349   5.0928   5.7664   6.2857   6.4272   7.2192

          k = 0.3333 0.3691 0.3295 ( 11443 PWs)   bands (ev):

   -50.0482 -50.0481 -21.9718 -21.9716 -21.9690 -21.9687 -21.9655 -21.9622
   -12.2428 -12.2413 -12.2381 -12.2372 -12.2235 -12.2223 -12.0963 -12.0949
   -12.0824 -12.0806  -5.9546  -5.6252  -2.2283  -1.8766  -0.9664  -0.6341
    -0.4966  -0.3576   5.2563   5.8771   6.0834   6.1895   7.2656

          k = 0.3333 0.3691-0.4942 ( 11432 PWs)   bands (ev):

   -50.0481 -50.0481 -21.9719 -21.9719 -21.9689 -21.9689 -21.9637 -21.9637
   -12.2424 -12.2424 -12.2376 -12.2376 -12.2226 -12.2226 -12.0956 -12.0956
   -12.0815 -12.0815  -5.7935  -5.7935  -2.1057  -2.1057  -0.7382  -0.7382
    -0.4185  -0.4185   5.5533   5.5533   6.1358   6.1358   7.3970

          k =-0.5000-0.5537 0.0000 ( 11426 PWs)   bands (ev):

   -50.0482 -50.0480 -21.9719 -21.9715 -21.9686 -21.9686 -21.9683 -21.9610
   -12.2413 -12.2407 -12.2371 -12.2358 -12.2240 -12.2218 -12.0970 -12.0940
   -12.0836 -12.0797  -5.8646  -5.4915  -2.4739  -1.5885  -1.2782  -1.0036
    -0.6039  -0.3050   5.2948   5.8945   6.1381   6.5279   7.1934

          k =-0.5000-0.5537 0.1647 ( 11448 PWs)   bands (ev):

   -50.0482 -50.0480 -21.9720 -21.9718 -21.9690 -21.9687 -21.9672 -21.9613
   -12.2417 -12.2412 -12.2369 -12.2358 -12.2235 -12.2215 -12.0968 -12.0942
   -12.0834 -12.0799  -5.8356  -5.5093  -2.5101  -1.8649  -1.0337  -0.9227
    -0.5680  -0.3137   5.3425   5.8817   5.8951   6.5278   7.5055

          k =-0.5000-0.5537 0.3295 ( 11426 PWs)   bands (ev):

   -50.0482 -50.0481 -21.9723 -21.9722 -21.9690 -21.9688 -21.9654 -21.9622
   -12.2424 -12.2421 -12.2366 -12.2359 -12.2224 -12.2213 -12.0962 -12.0948
   -12.0826 -12.0806  -5.7575  -5.5656  -2.5358  -2.2052  -0.7974  -0.7882
    -0.4692  -0.3347   5.4374   5.6029   5.9382   6.3569   7.6923

          k =-0.5000-0.5537-0.4942 ( 11416 PWs)   bands (ev):

   -50.0481 -50.0481 -21.9724 -21.9724 -21.9689 -21.9689 -21.9637 -21.9637
   -12.2426 -12.2426 -12.2362 -12.2362 -12.2215 -12.2215 -12.0955 -12.0955
   -12.0816 -12.0816  -5.6562  -5.6562  -2.4426  -2.4426  -0.7262  -0.7262
    -0.3751  -0.3751   5.4934   5.4934   6.1047   6.1047   7.8885

          k = 0.3333 0.0000 0.0000 ( 11448 PWs)   bands (ev):

   -50.0482 -50.0480 -21.9708 -21.9694 -21.9692 -21.9687 -21.9685 -21.9609
   -12.2438 -12.2402 -12.2378 -12.2375 -12.2268 -12.2231 -12.0977 -12.0949
   -12.0828 -12.0798  -6.3292  -5.4463  -1.8618  -1.4607  -1.1031  -0.6058
    -0.5994  -0.3084   4.8450   5.7780   5.8961   6.4669   6.6455

          k = 0.3333 0.0000 0.1647 ( 11431 PWs)   bands (ev):

   -50.0482 -50.0480 -21.9708 -21.9701 -21.9692 -21.9687 -21.9673 -21.9612
   -12.2436 -12.2401 -12.2383 -12.2380 -12.2262 -12.2231 -12.0975 -12.0951
   -12.0826 -12.0800  -6.2814  -5.5219  -1.7750  -1.4289  -1.0926  -0.6557
    -0.6156  -0.3726   4.9974   5.7212   5.9171   6.5161   6.9369

          k = 0.3333 0.0000 0.3295 ( 11435 PWs)   bands (ev):

   -50.0482 -50.0481 -21.9709 -21.9708 -21.9691 -21.9688 -21.9655 -21.9622
   -12.2430 -12.2400 -12.2396 -12.2384 -12.2250 -12.2233 -12.0970 -12.0956
   -12.0820 -12.0805  -6.1449  -5.7119  -1.5467  -1.3454  -1.1043  -0.8673
    -0.6067  -0.4691   5.3546   5.6964   6.0276   6.4839   7.0960

          k = 0.3333 0.0000-0.4942 ( 11414 PWs)   bands (ev):

   -50.0481 -50.0481 -21.9710 -21.9710 -21.9690 -21.9690 -21.9638 -21.9638
   -12.2417 -12.2417 -12.2391 -12.2391 -12.2239 -12.2239 -12.0963 -12.0963
   -12.0813 -12.0813  -5.9412  -5.9412  -1.2965  -1.2965  -1.1256  -1.1256
    -0.5469  -0.5469   5.6614   5.6614   6.2153   6.2154   6.9810

          k = 0.5000 0.1846 0.0000 ( 11443 PWs)   bands (ev):

   -50.0482 -50.0480 -21.9715 -21.9706 -21.9692 -21.9690 -21.9683 -21.9609
   -12.2437 -12.2384 -12.2365 -12.2346 -12.2257 -12.2216 -12.0979 -12.0949
   -12.0837 -12.0796  -6.0551  -5.3494  -2.0912  -1.6326  -1.3096  -0.9135
    -0.6878  -0.5128   5.0840   5.7044   5.9841   6.4710   7.1502

          k = 0.5000 0.1846 0.1647 ( 11449 PWs)   bands (ev):

   -50.0482 -50.0480 -21.9715 -21.9710 -21.9695 -21.9691 -21.9672 -21.9613
   -12.2436 -12.2391 -12.2364 -12.2347 -12.2252 -12.2217 -12.0977 -12.0950
   -12.0834 -12.0799  -6.0134  -5.4029  -2.1101  -1.6037  -1.3098  -0.8876
    -0.6983  -0.5352   5.1792   5.7522   6.0647   6.6471   6.8618

          k = 0.5000 0.1846 0.3295 ( 11440 PWs)   bands (ev):

   -50.0482 -50.0481 -21.9717 -21.9715 -21.9695 -21.9692 -21.9655 -21.9622
   -12.2431 -12.2406 -12.2360 -12.2350 -12.2240 -12.2219 -12.0971 -12.0956
   -12.0827 -12.0806  -5.8960  -5.5443  -2.0780  -1.7376  -1.1446  -0.8376
    -0.7324  -0.6088   5.4326   5.9865   6.1585   6.6140   6.9671

          k = 0.5000 0.1846-0.4942 ( 11436 PWs)   bands (ev):

   -50.0481 -50.0481 -21.9717 -21.9717 -21.9693 -21.9693 -21.9637 -21.9637
   -12.2421 -12.2421 -12.2355 -12.2355 -12.2227 -12.2227 -12.0963 -12.0963
   -12.0816 -12.0816  -5.7262  -5.7262  -1.9400  -1.9400  -0.9308  -0.9308
    -0.6972  -0.6972   5.8066   5.8066   6.4372   6.4373   7.0718

          k =-0.3333-0.7382 0.0000 ( 11454 PWs)   bands (ev):

   -50.0482 -50.0480 -21.9719 -21.9714 -21.9692 -21.9690 -21.9682 -21.9610
   -12.2427 -12.2397 -12.2347 -12.2334 -12.2247 -12.2211 -12.0975 -12.0944
   -12.0842 -12.0795  -5.7907  -5.3994  -2.4012  -1.5914  -1.3051  -0.9751
    -0.8849  -0.6674   5.3435   5.9569   6.0085   6.4396   7.0322

          k =-0.3333-0.7382 0.1647 ( 11440 PWs)   bands (ev):

   -50.0482 -50.0480 -21.9720 -21.9717 -21.9695 -21.9691 -21.9672 -21.9613
   -12.2428 -12.2403 -12.2346 -12.2334 -12.2242 -12.2210 -12.0973 -12.0946
   -12.0839 -12.0798  -5.7612  -5.4197  -2.4278  -1.8141  -1.1113  -0.9972
    -0.7861  -0.6731   5.3683   5.8573   6.0248   6.5994   7.0989

          k =-0.3333-0.7382 0.3295 ( 11431 PWs)   bands (ev):

   -50.0482 -50.0481 -21.9722 -21.9721 -21.9695 -21.9692 -21.9654 -21.9623
   -12.2430 -12.2415 -12.2343 -12.2336 -12.2230 -12.2211 -12.0967 -12.0952
   -12.0830 -12.0806  -5.6818  -5.4815  -2.4380  -2.1155  -0.9668  -0.8941
    -0.7342  -0.6308   5.4560   5.8153   6.1681   6.6479   7.1653

          k =-0.3333-0.7382-0.4942 ( 11426 PWs)   bands (ev):

   -50.0481 -50.0481 -21.9723 -21.9723 -21.9694 -21.9694 -21.9637 -21.9637
   -12.2426 -12.2426 -12.2339 -12.2339 -12.2218 -12.2218 -12.0959 -12.0959
   -12.0818 -12.0818  -5.5774  -5.5774  -2.3396  -2.3396  -0.8964  -0.8964
    -0.6464  -0.6464   5.6628   5.6628   6.4450   6.4451   7.2221

          k =-0.1667-0.5537 0.0000 ( 11420 PWs)   bands (ev):

   -50.0482 -50.0480 -21.9715 -21.9708 -21.9694 -21.9689 -21.9683 -21.9610
   -12.2413 -12.2407 -12.2363 -12.2345 -12.2256 -12.2224 -12.0971 -12.0941
   -12.0839 -12.0794  -5.9588  -5.4271  -2.1310  -1.4152  -1.2964  -1.1054
    -0.8350  -0.6101   5.3279   5.9752   6.6337   6.7139   7.1276

          k =-0.1667-0.5537 0.1647 ( 11428 PWs)   bands (ev):

   -50.0482 -50.0480 -21.9716 -21.9712 -21.9695 -21.9690 -21.9672 -21.9613
   -12.2417 -12.2412 -12.2361 -12.2346 -12.2250 -12.2223 -12.0969 -12.0942
   -12.0836 -12.0797  -5.9233  -5.4609  -2.1766  -1.6067  -1.2246  -0.9974
    -0.7703  -0.5882   5.4125   5.9456   6.3000   7.1198   7.1744

          k =-0.1667-0.5537 0.3295 ( 11422 PWs)   bands (ev):

   -50.0482 -50.0481 -21.9718 -21.9718 -21.9695 -21.9691 -21.9655 -21.9622
   -12.2424 -12.2421 -12.2358 -12.2349 -12.2237 -12.2221 -12.0963 -12.0948
   -12.0828 -12.0805  -5.8254  -5.5561  -2.2048  -1.8892  -1.1286  -0.9117
    -0.6602  -0.5073   5.6109   5.8684   6.1989   6.7838   7.2291

          k =-0.1667-0.5537-0.4942 ( 11436 PWs)   bands (ev):

   -50.0481 -50.0481 -21.9719 -21.9719 -21.9693 -21.9693 -21.9637 -21.9637
   -12.2426 -12.2426 -12.2353 -12.2353 -12.2226 -12.2226 -12.0955 -12.0955
   -12.0816 -12.0816  -5.6904  -5.6904  -2.1095  -2.1095  -1.0086  -1.0086
    -0.5166  -0.5166   5.7932   5.7932   6.3227   6.3227   7.4539

          k = 0.0000-0.3691 0.0000 ( 11429 PWs)   bands (ev):

   -50.0482 -50.0480 -21.9709 -21.9697 -21.9692 -21.9686 -21.9685 -21.9609
   -12.2423 -12.2400 -12.2390 -12.2378 -12.2265 -12.2240 -12.0969 -12.0941
   -12.0830 -12.0796  -6.2707  -5.4838  -1.7456  -1.5725  -1.1020  -0.6634
    -0.5853  -0.5283   5.0587   5.9877   6.0652   7.0107   7.2217

          k = 0.0000-0.3691 0.1647 ( 11427 PWs)   bands (ev):

   -50.0482 -50.0480 -21.9709 -21.9704 -21.9692 -21.9686 -21.9673 -21.9612
   -12.2425 -12.2399 -12.2397 -12.2379 -12.2259 -12.2238 -12.0967 -12.0943
   -12.0828 -12.0798  -6.2259  -5.5463  -1.8199  -1.4386  -1.0710  -0.7930
    -0.6241  -0.4233   5.2091   6.0057   6.0269   6.7631   6.9541

          k = 0.0000-0.3691 0.3295 ( 11413 PWs)   bands (ev):

   -50.0482 -50.0481 -21.9712 -21.9710 -21.9691 -21.9688 -21.9655 -21.9622
   -12.2426 -12.2411 -12.2395 -12.2384 -12.2246 -12.2235 -12.0962 -12.0948
   -12.0822 -12.0804  -6.0986  -5.7085  -1.8047  -1.4602  -0.9839  -0.7398
    -0.7267  -0.3982   5.6092   5.9513   6.1476   6.3654   6.6252

          k = 0.0000-0.3691-0.4942 ( 11434 PWs)   bands (ev):

   -50.0481 -50.0481 -21.9712 -21.9712 -21.9689 -21.9689 -21.9637 -21.9637
   -12.2422 -12.2422 -12.2389 -12.2389 -12.2237 -12.2237 -12.0955 -12.0955
   -12.0813 -12.0813  -5.9122  -5.9122  -1.6582  -1.6582  -0.8591  -0.8591
    -0.5249  -0.5249   5.9906   5.9908   6.2813   6.2816   6.3506

          k = 0.6667 0.0000 0.0000 ( 11464 PWs)   bands (ev):

   -50.0482 -50.0480 -21.9717 -21.9705 -21.9703 -21.9696 -21.9682 -21.9610
   -12.2444 -12.2384 -12.2323 -12.2302 -12.2262 -12.2204 -12.0986 -12.0954
   -12.0847 -12.0794  -5.8372  -5.1930  -2.0959  -1.5352  -1.5143  -1.4070
    -1.1444  -0.4895   4.8273   5.1991   5.8201   6.7560   6.9448

          k = 0.6667 0.0000 0.1647 ( 11462 PWs)   bands (ev):

   -50.0482 -50.0480 -21.9718 -21.9709 -21.9705 -21.9697 -21.9672 -21.9613
   -12.2442 -12.2391 -12.2322 -12.2304 -12.2256 -12.2206 -12.0984 -12.0956
   -12.0843 -12.0797  -5.7985  -5.2411  -2.0552  -1.5808  -1.4994  -1.4083
    -1.1146  -0.5684   5.0388   5.2507   6.0087   6.8545   6.9456

          k = 0.6667 0.0000 0.3295 ( 11441 PWs)   bands (ev):

   -50.0482 -50.0481 -21.9718 -21.9715 -21.9703 -21.9699 -21.9654 -21.9623
   -12.2435 -12.2406 -12.2318 -12.2307 -12.2242 -12.2213 -12.0978 -12.0961
   -12.0833 -12.0807  -5.6899  -5.3686  -1.9407  -1.6170  -1.5515  -1.4278
    -1.0237  -0.7423   5.5068   5.5868   6.4556   6.7965   6.8501

          k = 0.6667 0.0000-0.4942 ( 11446 PWs)   bands (ev):

   -50.0481 -50.0481 -21.9718 -21.9718 -21.9701 -21.9701 -21.9637 -21.9637
   -12.2422 -12.2422 -12.2313 -12.2313 -12.2226 -12.2226 -12.0969 -12.0969
   -12.0820 -12.0820  -5.5340  -5.5340  -1.7772  -1.7772  -1.4890  -1.4890
    -0.9036  -0.9036   5.9812   5.9812   6.4246   6.4246   6.9492

          k =-0.1667-0.9228 0.0000 ( 11444 PWs)   bands (ev):

   -50.0482 -50.0480 -21.9720 -21.9711 -21.9704 -21.9698 -21.9680 -21.9610
   -12.2441 -12.2391 -12.2301 -12.2287 -12.2259 -12.2200 -12.0986 -12.0952
   -12.0852 -12.0792  -5.6212  -5.1871  -2.2531  -1.7683  -1.5452  -1.3172
    -1.2186  -0.6768   4.7118   5.2801   5.6235   6.2987   7.3919

          k =-0.1667-0.9228 0.1647 ( 11447 PWs)   bands (ev):

   -50.0482 -50.0480 -21.9721 -21.9714 -21.9706 -21.9699 -21.9671 -21.9613
   -12.2440 -12.2397 -12.2300 -12.2287 -12.2253 -12.2202 -12.0983 -12.0954
   -12.0848 -12.0796  -5.5911  -5.2134  -2.2462  -1.7918  -1.5844  -1.3022
    -1.2020  -0.6991   4.8602   5.2894   5.9395   6.4650   7.3240

          k =-0.1667-0.9228 0.3295 ( 11429 PWs)   bands (ev):

   -50.0481 -50.0480 -21.9722 -21.9719 -21.9705 -21.9700 -21.9654 -21.9623
   -12.2435 -12.2411 -12.2297 -12.2289 -12.2239 -12.2209 -12.0977 -12.0960
   -12.0837 -12.0807  -5.5089  -5.2888  -2.2013  -1.9155  -1.5754  -1.3677
    -1.0794  -0.7798   5.2552   5.6115   6.4167   6.6887   7.1565

          k =-0.1667-0.9228-0.4942 ( 11424 PWs)   bands (ev):

   -50.0481 -50.0481 -21.9722 -21.9722 -21.9703 -21.9703 -21.9637 -21.9637
   -12.2425 -12.2425 -12.2293 -12.2293 -12.2222 -12.2222 -12.0968 -12.0968
   -12.0822 -12.0822  -5.3973  -5.3973  -2.0849  -2.0849  -1.4795  -1.4795
    -0.9186  -0.9186   5.8262   5.8262   6.3244   6.3244   7.3910

          k =-0.0000-0.7382 0.0000 ( 11416 PWs)   bands (ev):

   -50.0482 -50.0480 -21.9718 -21.9706 -21.9706 -21.9696 -21.9681 -21.9610
   -12.2428 -12.2400 -12.2319 -12.2301 -12.2263 -12.2211 -12.0978 -12.0946
   -12.0848 -12.0792  -5.6923  -5.3227  -2.0585  -1.7818  -1.3386  -1.1887
    -1.1298  -0.9309   4.9308   5.9173   6.0612   6.4076   7.4778

          k =-0.0000-0.7382 0.1647 ( 11440 PWs)   bands (ev):

   -50.0482 -50.0480 -21.9719 -21.9712 -21.9705 -21.9696 -21.9672 -21.9613
   -12.2430 -12.2405 -12.2318 -12.2303 -12.2257 -12.2211 -12.0976 -12.0948
   -12.0844 -12.0796  -5.6644  -5.3421  -2.0962  -1.7441  -1.5848  -1.1810
    -0.9834  -0.8468   5.0337   5.7522   6.4910   6.5504   7.2025

          k =-0.0000-0.7382 0.3295 ( 11433 PWs)   bands (ev):

   -50.0482 -50.0481 -21.9720 -21.9718 -21.9703 -21.9698 -21.9654 -21.9623
   -12.2431 -12.2417 -12.2315 -12.2306 -12.2241 -12.2215 -12.0970 -12.0953
   -12.0834 -12.0806  -5.5893  -5.4007  -2.1294  -1.8644  -1.6376  -1.3142
    -0.7930  -0.7143   5.2905   5.9793   6.4543   6.9198   6.9254

          k =-0.0000-0.7382-0.4942 ( 11418 PWs)   bands (ev):

   -50.0481 -50.0481 -21.9721 -21.9721 -21.9701 -21.9701 -21.9637 -21.9637
   -12.2427 -12.2427 -12.2311 -12.2311 -12.2225 -12.2225 -12.0961 -12.0961
   -12.0820 -12.0820  -5.4910  -5.4910  -2.0586  -2.0586  -1.4825  -1.4825
    -0.6896  -0.6896   5.7499   5.7499   6.5665   6.5665   7.3404

          k =-1.0000 0.0000 0.0000 ( 11478 PWs)   bands (ev):

   -50.0482 -50.0480 -21.9721 -21.9712 -21.9707 -21.9701 -21.9680 -21.9610
   -12.2447 -12.2389 -12.2279 -12.2265 -12.2263 -12.2194 -12.0991 -12.0956
   -12.0856 -12.0791  -5.5220  -5.0607  -2.1912  -2.0552  -1.7105  -1.3616
    -1.3140  -0.5748   4.5152   4.9765   5.1895   5.9951   8.6427

          k =-1.0000 0.0000 0.1647 ( 11466 PWs)   bands (ev):

   -50.0482 -50.0480 -21.9722 -21.9713 -21.9711 -21.9701 -21.9671 -21.9613
   -12.2444 -12.2395 -12.2278 -12.2264 -12.2259 -12.2197 -12.0988 -12.0958
   -12.0852 -12.0796  -5.4916  -5.0913  -2.1565  -2.0156  -1.7424  -1.4168
    -1.2947  -0.6657   4.7337   5.0112   5.5014   6.1697   8.3433

          k =-1.0000 0.0000 0.3295 ( 11428 PWs)   bands (ev):

   -50.0481 -50.0480 -21.9723 -21.9719 -21.9709 -21.9703 -21.9654 -21.9623
   -12.2437 -12.2409 -12.2275 -12.2267 -12.2242 -12.2207 -12.0981 -12.0964
   -12.0840 -12.0807  -5.4078  -5.1757  -2.0626  -1.9032  -1.8234  -1.5598
    -1.2296  -0.8757   5.2865   5.3254   6.1429   6.6566   7.6113

          k =-1.0000 0.0000-0.4942 ( 11408 PWs)   bands (ev):

   -50.0481 -50.0481 -21.9723 -21.9723 -21.9706 -21.9706 -21.9637 -21.9637
   -12.2425 -12.2425 -12.2271 -12.2271 -12.2223 -12.2223 -12.0973 -12.0973
   -12.0824 -12.0824  -5.2920  -5.2920  -1.9386  -1.9386  -1.7390  -1.7390
    -1.0889  -1.0889   5.6975   5.6975   6.7440   6.7440   7.2389

     the Fermi energy is     1.4084 ev

!    total energy              =    -755.96382674 Ry
     estimated scf accuracy    <          1.3E-10 Ry
     smearing contrib. (-TS)   =       0.00000000 Ry
     internal energy E=F+TS    =    -755.96382674 Ry

     The total energy is F=E-TS. E is the sum of the following terms:
     one-electron contribution =    -441.25150243 Ry
     hartree contribution      =     246.92190397 Ry
     xc contribution           =    -110.77325782 Ry
     ewald contribution        =    -228.15112852 Ry
     one-center paw contrib.   =    -222.70984195 Ry

     convergence has been achieved in  12 iterations

     Forces acting on atoms (cartesian axes, Ry/au):

     atom    1 type  2   force =     0.00000000    0.00005663   -0.00000000
     atom    2 type  2   force =     0.00000000   -0.00005663    0.00000000
     atom    3 type  3   force =     0.00000000    0.00060708   -0.00000000
     atom    4 type  3   force =     0.00000000   -0.00060708    0.00000000
     atom    5 type  1   force =     0.00000000    0.00290127   -0.00452883
     atom    6 type  1   force =     0.00000000    0.00290127    0.00452883
     atom    7 type  1   force =     0.00000000   -0.00290127   -0.00452883
     atom    8 type  1   force =     0.00000000   -0.00290127    0.00452883
     atom    9 type  1   force =     0.00446318   -0.00264722   -0.00000000
     atom   10 type  1   force =     0.00446318    0.00264722    0.00000000
     atom   11 type  1   force =    -0.00446318    0.00264722   -0.00000000
     atom   12 type  1   force =    -0.00446318   -0.00264722    0.00000000

     Total force =     0.014972     Total SCF correction =     0.000027


     Computing stress (Cartesian axis) and pressure

          total   stress  (Ry/bohr**3)                   (kbar)     P=       13.94
   0.00008791   0.00000000   0.00000000           12.93        0.00        0.00
   0.00000000   0.00010476   0.00000000            0.00       15.41        0.00
   0.00000000   0.00000000   0.00009165            0.00        0.00       13.48


     Writing output data file ./NaGaH4_experimental.save/

     init_run     :     30.28s CPU     10.36s WALL (       1 calls)
     electrons    :   1763.36s CPU    429.37s WALL (       1 calls)
     forces       :     12.25s CPU      2.98s WALL (       1 calls)
     stress       :     71.06s CPU     21.03s WALL (       1 calls)

     Called by init_run:
     wfcinit      :     27.48s CPU      8.14s WALL (       1 calls)
     potinit      :      0.67s CPU      0.70s WALL (       1 calls)
     hinit0       :      1.01s CPU      0.96s WALL (       1 calls)

     Called by electrons:
     c_bands      :   1503.24s CPU    355.58s WALL (      13 calls)
     sum_band     :    246.35s CPU     64.68s WALL (      13 calls)
     v_of_rho     :      1.21s CPU      1.25s WALL (      13 calls)
     newd         :     10.74s CPU      5.79s WALL (      13 calls)
     PAW_pot      :      2.49s CPU      2.49s WALL (      13 calls)
     mix_rho      :      0.19s CPU      0.21s WALL (      13 calls)

     Called by c_bands:
     init_us_2    :     39.13s CPU      9.02s WALL (    1508 calls)
     cegterg      :   1388.65s CPU    325.19s WALL (     687 calls)

     Called by *egterg:
     cdiaghg      :     40.20s CPU      4.49s WALL (    4466 calls)
     h_psi        :    981.62s CPU    287.86s WALL (    4570 calls)
     s_psi        :     73.29s CPU      6.98s WALL (    4570 calls)
     g_psi        :     29.06s CPU      3.76s WALL (    3831 calls)

     Called by h_psi:
     h_psi:calbec :     71.56s CPU     10.08s WALL (    4570 calls)
     vloc_psi     :    806.78s CPU    267.82s WALL (    4570 calls)
     add_vuspsi   :     95.51s CPU      8.42s WALL (    4570 calls)

     General routines
     calbec       :     92.34s CPU     12.84s WALL (    5506 calls)
     fft          :      0.57s CPU      0.57s WALL (     193 calls)
     ffts         :      0.21s CPU      0.06s WALL (      26 calls)
     fftw         :    805.04s CPU    268.38s WALL (  164322 calls)
     interpolate  :      0.07s CPU      0.08s WALL (      13 calls)

     Parallel routines

     PWSCF        :  31m17.33s CPU   7m44.31s WALL


   This run was terminated on:  19:55:50  28Nov2023            

=------------------------------------------------------------------------------=
   JOB DONE.
=------------------------------------------------------------------------------=
