
     Program PWSCF v.6.7MaX starts on 17Oct2023 at 22: 5: 9 

     This program is part of the open-source Quantum ESPRESSO suite
     for quantum simulation of materials; please cite
         "P. Giannozzi et al., J. Phys.:Condens. Matter 21 395502 (2009);
         "P. Giannozzi et al., J. Phys.:Condens. Matter 29 465901 (2017);
          URL http://www.quantum-espresso.org", 
     in publications or presentations arising from this work. More details at
     http://www.quantum-espresso.org/quote

     Parallel version (MPI), running on     1 processors

     MPI processes distributed on     1 nodes
     Reading input from NaAlH4.in

     Current dimensions of program PWSCF are:
     Max number of different atomic species (ntypx) = 10
     Max number of k-points (npk) =  40000
     Max angular momentum in pseudopotentials (lmaxx) =  3
     file Al.pbe-n-kjpaw_psl.1.0.0.UPF: wavefunction(s)  3S 3P renormalized

     IMPORTANT: XC functional enforced from input :
     Exchange-correlation= PBE
                           (   1   4   3   4   0   0   0)
     Any further DFT definition will be discarded
     Please, verify this is what you really want

     Message from routine set_cutoff:
     ecutrho < 4*ecutwfc, are you sure?

     Subspace diagonalization in iterative solution of the eigenvalue problem:
     a serial algorithm will be used

     Message from routine setup:
     using ibrav=0 with symmetry is DISCOURAGED, use correct ibrav instead

     G-vector sticks info
     --------------------
     sticks:   dense  smooth     PW     G-vecs:    dense   smooth      PW
     Sum        1565    1565    601                51609    51609   12507



     bravais-lattice index     =            0
     lattice parameter (alat)  =       9.3373  a.u.
     unit-cell volume          =     905.3038 (a.u.)^3
     number of atoms/cell      =           12
     number of atomic types    =            3
     number of electrons       =        32.00
     number of Kohn-Sham states=           20
     kinetic-energy cutoff     =      75.0000  Ry
     charge density cutoff     =     225.0000  Ry
     scf convergence threshold =      1.0E-08
     mixing beta               =       0.7000
     number of iterations used =            8  plain     mixing
     Exchange-correlation= PBE
                           (   1   4   3   4   0   0   0)

     celldm(1)=   9.337326  celldm(2)=   0.000000  celldm(3)=   0.000000
     celldm(4)=   0.000000  celldm(5)=   0.000000  celldm(6)=   0.000000

     crystal axes: (cart. coord. in units of alat)
               a(1) = (   1.000000   0.000000   0.000000 )  
               a(2) = (   0.000000   1.000000   0.000000 )  
               a(3) = (   0.500000   0.500000   1.112056 )  

     reciprocal axes: (cart. coord. in units 2 pi/alat)
               b(1) = (  1.000000  0.000000 -0.449617 )  
               b(2) = (  0.000000  1.000000 -0.449617 )  
               b(3) = (  0.000000  0.000000  0.899235 )  


     PseudoPot. # 1 for Al read from file:
     /home/vojta/Dokumenty/UA_CompPhys/pseudopotentials/Al.pbe-n-kjpaw_psl.1.0.0.UPF
     MD5 check sum: cfc449ca30b5f3223ec38ddd88ac046d
     Pseudo is Projector augmented-wave + core cor, Zval =  3.0
     Generated using "atomic" code by A. Dal Corso  v.5.1
     Shape of augmentation charge: PSQ
     Using radial grid of 1135 points,  6 beta functions with: 
                l(1) =   0
                l(2) =   0
                l(3) =   1
                l(4) =   1
                l(5) =   2
                l(6) =   2
     Q(r) pseudized with 0 coefficients 


     PseudoPot. # 2 for H  read from file:
     /home/vojta/Dokumenty/UA_CompPhys/pseudopotentials/H.pbe-rrkjus_psl.1.0.0.UPF
     MD5 check sum: f52b6d4d1c606e5624b1dc7b2218f220
     Pseudo is Ultrasoft, Zval =  1.0
     Generated using "atomic" code by A. Dal Corso  v.5.1
     Using radial grid of  929 points,  2 beta functions with: 
                l(1) =   0
                l(2) =   0
     Q(r) pseudized with 0 coefficients 


     PseudoPot. # 3 for Na read from file:
     /home/vojta/Dokumenty/UA_CompPhys/pseudopotentials/na_pbe_v1.5.uspp.F.UPF
     MD5 check sum: 44600605ef58000f06b90626533354dc
     Pseudo is Ultrasoft, Zval =  9.0
     Generated by new atomic code, or converted to UPF format
     Using radial grid of  819 points,  5 beta functions with: 
                l(1) =   0
                l(2) =   0
                l(3) =   1
                l(4) =   1
                l(5) =   2
     Q(r) pseudized with  8 coefficients,  rinner =    1.250   1.250   1.250
                                                       1.250   1.250

     atomic species   valence    mass     pseudopotential
        Al             3.00    26.98100     Al( 1.00)
        H              1.00     1.00750     H ( 1.00)
        Na             9.00    22.98900     Na( 1.00)

      8 Sym. Ops., with inversion, found ( 6 have fractional translation)



   Cartesian axes

     site n.     atom                  positions (alat units)
         1           Al  tau(   1) = (   1.0000000   0.2500000   0.2780141  )
         2           Al  tau(   2) = (   0.5000000   1.2500000   0.8340423  )
         3           Na  tau(   3) = (   0.5000000   0.7500000   0.2780141  )
         4           Na  tau(   4) = (   1.0000000   0.7500000   0.8340423  )
         5           H   tau(   5) = (   0.3578100   1.0135100   0.6538447  )
         6           H   tau(   6) = (   0.7635100   0.3921900   0.0978165  )
         7           H   tau(   7) = (   1.2635100   1.3921900   1.0142399  )
         8           H   tau(   8) = (   0.8578100   1.0135100   0.4582117  )
         9           H   tau(   9) = (   0.6421900   0.4864900   0.6538447  )
        10           H   tau(  10) = (   1.1421900   0.4864900   0.4582117  )
        11           H   tau(  11) = (   0.7364900   1.1078100   1.0142399  )
        12           H   tau(  12) = (   0.2364900   0.1078100   0.0978165  )

     number of k points=    30  Marzari-Vanderbilt smearing, width (Ry)=  0.0050
                       cart. coord. in units 2pi/alat
        k(    1) = (   0.0000000   0.0000000   0.0000000), wk =   0.0185185
        k(    2) = (   0.0000000   0.0000000   0.2997450), wk =   0.0370370
        k(    3) = (   0.0000000   0.1666667  -0.0749362), wk =   0.0740741
        k(    4) = (   0.0000000   0.1666667   0.2248087), wk =   0.0740741
        k(    5) = (   0.0000000   0.1666667  -0.3746812), wk =   0.0740741
        k(    6) = (   0.0000000   0.3333333  -0.1498725), wk =   0.1481481
        k(    7) = (   0.0000000   0.3333333  -0.4496175), wk =   0.0740741
        k(    8) = (   0.0000000  -0.5000000   0.2248087), wk =   0.0370370
        k(    9) = (   0.0000000  -0.5000000   0.5245537), wk =   0.0740741
        k(   10) = (   0.1666667   0.1666667  -0.1498725), wk =   0.0740741
        k(   11) = (   0.1666667   0.1666667  -0.4496175), wk =   0.0370370
        k(   12) = (   0.1666667   0.3333333  -0.2248087), wk =   0.0740741
        k(   13) = (   0.1666667   0.3333333   0.0749362), wk =   0.0740741
        k(   14) = (   0.1666667   0.3333333  -0.5245537), wk =   0.0740741
        k(   15) = (   0.1666667  -0.5000000   0.1498725), wk =   0.0740741
        k(   16) = (   0.1666667  -0.5000000   0.4496175), wk =   0.0370370
        k(   17) = (   0.1666667  -0.1666667  -0.0000000), wk =   0.0370370
        k(   18) = (   0.1666667  -0.1666667   0.2997450), wk =   0.0740741
        k(   19) = (   0.3333333   0.3333333  -0.2997450), wk =   0.1481481
        k(   20) = (   0.3333333   0.3333333   0.0000000), wk =   0.0740741
        k(   21) = (   0.3333333  -0.5000000   0.0749362), wk =   0.0740741
        k(   22) = (   0.3333333  -0.5000000  -0.2248087), wk =   0.0740741
        k(   23) = (  -0.5000000  -0.5000000   0.4496175), wk =   0.0185185
        k(   24) = (  -0.5000000  -0.5000000   0.7493625), wk =   0.0370370
        k(   25) = (   0.3333333   0.1666667   0.2248087), wk =   0.0740741
        k(   26) = (   0.3333333   0.1666667  -0.0749362), wk =   0.0740741
        k(   27) = (   0.3333333   0.1666667   0.5245537), wk =   0.0740741
        k(   28) = (  -0.5000000   0.1666667  -0.1498725), wk =   0.0740741
        k(   29) = (  -0.5000000   0.1666667  -0.4496175), wk =   0.0370370
        k(   30) = (  -0.5000000   0.3333333  -0.0749362), wk =   0.0740741

     Dense  grid:    51609 G-vectors     FFT dimensions: (  48,  48,  60)

     Estimated max dynamical RAM per process >     307.70 MB

     Initial potential from superposition of free atoms

     starting charge   31.98276, renormalised to   32.00000
     Starting wfcs are   26 randomized atomic wfcs
     Checking if some PAW data can be deallocated... 

     total cpu time spent up to now is        4.6 secs

     Self-consistent Calculation

     iteration #  1     ecut=    75.00 Ry     beta= 0.70
     Davidson diagonalization with overlap
     ethr =  1.00E-02,  avg # of iterations =  3.8

     total cpu time spent up to now is       14.4 secs

     total energy              =    -279.10900190 Ry
     estimated scf accuracy    <       0.55165505 Ry

     iteration #  2     ecut=    75.00 Ry     beta= 0.70
     Davidson diagonalization with overlap
     ethr =  1.72E-03,  avg # of iterations =  2.0

     total cpu time spent up to now is       22.8 secs

     total energy              =    -279.14536595 Ry
     estimated scf accuracy    <       0.01005432 Ry

     iteration #  3     ecut=    75.00 Ry     beta= 0.70
     Davidson diagonalization with overlap
     ethr =  3.14E-05,  avg # of iterations =  9.2

     total cpu time spent up to now is       35.7 secs

     total energy              =    -279.14818163 Ry
     estimated scf accuracy    <       0.00036811 Ry

     iteration #  4     ecut=    75.00 Ry     beta= 0.70
     Davidson diagonalization with overlap
     ethr =  1.15E-06,  avg # of iterations =  4.9

     total cpu time spent up to now is       46.5 secs

     total energy              =    -279.14828410 Ry
     estimated scf accuracy    <       0.00004326 Ry

     iteration #  5     ecut=    75.00 Ry     beta= 0.70
     Davidson diagonalization with overlap
     ethr =  1.35E-07,  avg # of iterations =  2.3

     total cpu time spent up to now is       55.4 secs

     total energy              =    -279.14829172 Ry
     estimated scf accuracy    <       0.00000495 Ry

     iteration #  6     ecut=    75.00 Ry     beta= 0.70
     Davidson diagonalization with overlap
     ethr =  1.55E-08,  avg # of iterations =  2.1

     total cpu time spent up to now is       64.3 secs

     total energy              =    -279.14829229 Ry
     estimated scf accuracy    <       0.00000005 Ry

     iteration #  7     ecut=    75.00 Ry     beta= 0.70
     Davidson diagonalization with overlap
     ethr =  1.46E-10,  avg # of iterations =  4.7

     total cpu time spent up to now is       76.3 secs

     total energy              =    -279.14829233 Ry
     estimated scf accuracy    <       0.00000002 Ry

     iteration #  8     ecut=    75.00 Ry     beta= 0.70
     Davidson diagonalization with overlap
     ethr =  7.19E-11,  avg # of iterations =  2.0

     total cpu time spent up to now is       85.4 secs

     End of self-consistent calculation

          k = 0.0000 0.0000 0.0000 (  9889 PWs)   bands (ev):

   -49.8258 -49.8243 -21.7589 -21.7511 -21.7511 -21.7452 -21.7452 -21.7349
    -6.2370  -2.9952  -2.2680  -1.2824  -1.2824  -0.8762  -0.8762  -0.1023
     4.7474   4.8207   5.4556   6.2873

          k = 0.0000 0.0000 0.2997 (  9928 PWs)   bands (ev):

   -49.8254 -49.8247 -21.7537 -21.7537 -21.7530 -21.7426 -21.7426 -21.7410
    -5.7835  -4.5049  -1.7338  -1.7338  -0.9763  -0.2800  -0.2149  -0.2149
     4.7963   4.9047   6.5017   6.5019

          k = 0.0000 0.1667-0.0749 (  9902 PWs)   bands (ev):

   -49.8258 -49.8244 -21.7585 -21.7517 -21.7516 -21.7449 -21.7447 -21.7354
    -6.0838  -3.2971  -2.0372  -1.6827  -1.2849  -0.9709  -0.7836  -0.0322
     4.8889   5.3417   5.6381   6.3122

          k = 0.0000 0.1667 0.2248 (  9922 PWs)   bands (ev):

   -49.8256 -49.8246 -21.7559 -21.7532 -21.7529 -21.7433 -21.7433 -21.7382
    -5.8616  -4.0507  -2.0977  -1.5558  -1.2673  -0.5476  -0.4223  -0.0860
     4.8590   5.2723   6.2043   6.3658

          k = 0.0000 0.1667-0.3747 (  9926 PWs)   bands (ev):

   -49.8253 -49.8249 -21.7553 -21.7540 -21.7502 -21.7445 -21.7423 -21.7407
    -5.4290  -4.8059  -2.2778  -1.7107  -0.6918  -0.3635  -0.1751  -0.1469
     5.0205   5.3354   5.9725   6.4273

          k = 0.0000 0.3333-0.1499 (  9933 PWs)   bands (ev):

   -49.8256 -49.8246 -21.7577 -21.7532 -21.7523 -21.7440 -21.7438 -21.7367
    -5.6665  -3.8460  -2.3469  -1.9385  -1.2444  -0.7577  -0.6615  -0.0757
     5.1867   5.7148   6.0292   6.4410

          k = 0.0000 0.3333-0.4496 (  9943 PWs)   bands (ev):

   -49.8253 -49.8249 -21.7573 -21.7535 -21.7501 -21.7455 -21.7427 -21.7387
    -5.0930  -4.7380  -2.9384  -1.4997  -0.8049  -0.6198  -0.2731  -0.2311
     5.1590   5.6226   6.0818   6.7630

          k = 0.0000-0.5000 0.2248 (  9914 PWs)   bands (ev):

   -49.8254 -49.8247 -21.7572 -21.7541 -21.7526 -21.7435 -21.7431 -21.7376
    -5.3029  -4.2731  -2.5704  -2.0221  -1.1954  -0.6566  -0.3961  -0.2460
     5.4140   5.8208   5.9886   5.9898

          k = 0.0000-0.5000 0.5246 (  9928 PWs)   bands (ev):

   -49.8254 -49.8247 -21.7582 -21.7527 -21.7520 -21.7447 -21.7434 -21.7370
    -5.3148  -4.2040  -2.8877  -1.5384  -1.2021  -0.7779  -0.5851  -0.1727
     5.2902   5.6899   6.0272   6.6351

          k = 0.1667 0.1667-0.1499 (  9925 PWs)   bands (ev):

   -49.8256 -49.8245 -21.7575 -21.7532 -21.7518 -21.7449 -21.7432 -21.7365
    -5.8791  -3.6543  -1.9230  -1.8585  -1.4685  -0.9401  -0.5923  -0.0547
     5.3173   5.3374   5.8074   6.5166

          k = 0.1667 0.1667-0.4496 (  9962 PWs)   bands (ev):

   -49.8251 -49.8251 -21.7553 -21.7551 -21.7478 -21.7473 -21.7410 -21.7408
    -5.0471  -5.0423  -2.2212  -2.1857  -0.4843  -0.3768  -0.2874  -0.2187
     5.3015   5.3707   6.0864   6.1370

          k = 0.1667 0.3333-0.2248 (  9936 PWs)   bands (ev):

   -49.8254 -49.8247 -21.7569 -21.7547 -21.7519 -21.7450 -21.7417 -21.7377
    -5.4336  -4.0530  -2.5075  -1.7687  -1.4906  -0.8584  -0.5735  -0.1010
     5.3643   5.5988   6.2606   6.4095

          k = 0.1667 0.3333 0.0749 (  9931 PWs)   bands (ev):

   -49.8256 -49.8246 -21.7584 -21.7536 -21.7510 -21.7462 -21.7428 -21.7360
    -5.6206  -3.6378  -2.2404  -1.8720  -1.4661  -1.2050  -0.8762  -0.0623
     5.2277   5.6505   6.0877   6.8864

          k = 0.1667 0.3333-0.5246 (  9926 PWs)   bands (ev):

   -49.8253 -49.8249 -21.7570 -21.7545 -21.7505 -21.7458 -21.7415 -21.7387
    -5.0977  -4.5424  -2.7973  -1.8862  -0.9189  -0.6242  -0.3894  -0.3506
     5.3720   5.7864   5.9486   6.4239

          k = 0.1667-0.5000 0.1499 (  9928 PWs)   bands (ev):

   -49.8254 -49.8247 -21.7576 -21.7546 -21.7516 -21.7454 -21.7417 -21.7374
    -5.1920  -4.2061  -2.6306  -1.8008  -1.4882  -0.9249  -0.4862  -0.3534
     5.4116   5.6553   6.1980   6.5412

          k = 0.1667-0.5000 0.4496 (  9933 PWs)   bands (ev):

   -49.8254 -49.8247 -21.7582 -21.7542 -21.7502 -21.7468 -21.7419 -21.7370
    -5.2054  -4.1385  -2.8332  -1.6473  -1.3042  -1.0028  -0.8047  -0.1066
     5.0853   5.6687   6.1510   6.4795

          k = 0.1667-0.1667-0.0000 (  9916 PWs)   bands (ev):

   -49.8257 -49.8244 -21.7588 -21.7523 -21.7509 -21.7459 -21.7442 -21.7351
    -5.9882  -3.2066  -2.0797  -1.5610  -1.4885  -1.3316  -0.8422  -0.0397
     5.4257   5.4797   5.5612   6.1231

          k = 0.1667-0.1667 0.2997 (  9925 PWs)   bands (ev):

   -49.8254 -49.8247 -21.7553 -21.7546 -21.7518 -21.7443 -21.7417 -21.7395
    -5.5580  -4.3802  -2.1357  -2.0905  -0.9202  -0.5017  -0.3044  -0.1436
     5.2511   5.4308   5.9224   6.3463

          k = 0.3333 0.3333-0.2997 (  9932 PWs)   bands (ev):

   -49.8252 -49.8249 -21.7567 -21.7563 -21.7507 -21.7467 -21.7400 -21.7384
    -4.9902  -4.2453  -2.5311  -2.2110  -1.4056  -0.9442  -0.6547  -0.4236
     5.4896   5.5915   5.8792   6.5795

          k = 0.3333 0.3333 0.0000 (  9944 PWs)   bands (ev):

   -49.8254 -49.8247 -21.7584 -21.7548 -21.7502 -21.7474 -21.7416 -21.7363
    -5.3122  -3.7275  -1.9986  -1.9398  -1.8811  -1.3586  -1.1723  -0.2444
     4.8427   6.2829   6.6868   7.0539

          k = 0.3333-0.5000 0.0749 (  9934 PWs)   bands (ev):

   -49.8252 -49.8249 -21.7578 -21.7558 -21.7500 -21.7477 -21.7402 -21.7375
    -4.8779  -4.1734  -2.5007  -2.0325  -1.5501  -1.2931  -0.9524  -0.4271
     4.9496   5.7629   6.4597   6.9728

          k = 0.3333-0.5000-0.2248 (  9938 PWs)   bands (ev):

   -49.8252 -49.8249 -21.7573 -21.7563 -21.7505 -21.7472 -21.7398 -21.7378
    -4.8706  -4.1926  -2.4727  -1.9030  -1.7386  -1.3388  -0.8015  -0.5011
     5.3713   5.5369   6.2609   6.8272

          k =-0.5000-0.5000 0.4496 (  9930 PWs)   bands (ev):

   -49.8251 -49.8251 -21.7571 -21.7571 -21.7490 -21.7490 -21.7386 -21.7386
    -4.4535  -4.4535  -2.1092  -2.1092  -1.8363  -1.8363  -0.6588  -0.6588
     5.0468   5.0468   7.1979   7.1979

          k =-0.5000-0.5000 0.7494 (  9946 PWs)   bands (ev):

   -49.8251 -49.8251 -21.7571 -21.7571 -21.7490 -21.7490 -21.7386 -21.7386
    -4.4515  -4.4515  -2.2577  -2.2577  -1.5728  -1.5728  -0.7993  -0.7993
     5.3672   5.3672   6.4591   6.4591

          k = 0.3333 0.1667 0.2248 (  9936 PWs)   bands (ev):

   -49.8254 -49.8247 -21.7569 -21.7548 -21.7519 -21.7451 -21.7417 -21.7377
    -5.4337  -4.0544  -2.4682  -1.8303  -1.5488  -0.7524  -0.4566  -0.2472
     5.4930   5.6362   5.9507   6.4097

          k = 0.3333 0.1667-0.0749 (  9931 PWs)   bands (ev):

   -49.8256 -49.8246 -21.7585 -21.7534 -21.7511 -21.7460 -21.7430 -21.7359
    -5.6203  -3.6439  -2.2483  -1.8336  -1.5206  -1.1675  -0.7822  -0.1989
     5.2275   5.9233   6.3414   6.6837

          k = 0.3333 0.1667 0.5246 (  9926 PWs)   bands (ev):

   -49.8253 -49.8249 -21.7568 -21.7549 -21.7502 -21.7461 -21.7411 -21.7389
    -5.1005  -4.5381  -2.7676  -1.9475  -1.0089  -0.5384  -0.4421  -0.2293
     5.3723   5.5137   5.8824   6.3414

          k =-0.5000 0.1667-0.1499 (  9928 PWs)   bands (ev):

   -49.8254 -49.8247 -21.7575 -21.7548 -21.7514 -21.7456 -21.7415 -21.7374
    -5.1935  -4.2010  -2.6135  -1.8364  -1.5210  -0.8748  -0.6466  -0.1619
     5.2483   5.6403   6.1755   6.5271

          k =-0.5000 0.1667-0.4496 (  9933 PWs)   bands (ev):

   -49.8254 -49.8247 -21.7583 -21.7539 -21.7507 -21.7463 -21.7423 -21.7369
    -5.2025  -4.1492  -2.8485  -1.6056  -1.2272  -0.8844  -0.8734  -0.3175
     5.2271   5.9273   6.2491   6.8606

          k =-0.5000 0.3333-0.0749 (  9934 PWs)   bands (ev):

   -49.8252 -49.8249 -21.7577 -21.7560 -21.7498 -21.7479 -21.7400 -21.7376
    -4.8818  -4.1633  -2.4768  -2.0704  -1.6167  -1.2634  -0.9528  -0.3571
     4.9288   5.7099   6.2916   6.8341

     the Fermi energy is    -0.0011 ev

!    total energy              =    -279.14829233 Ry
     estimated scf accuracy    <          4.3E-10 Ry
     smearing contrib. (-TS)   =       0.00035858 Ry
     internal energy E=F+TS    =    -279.14865091 Ry

     The total energy is F=E-TS. E is the sum of the following terms:
     one-electron contribution =    -172.69211683 Ry
     hartree contribution      =      92.93387341 Ry
     xc contribution           =     -39.59935502 Ry
     ewald contribution        =     -90.40844893 Ry
     one-center paw contrib.   =     -69.38260354 Ry

     convergence has been achieved in   8 iterations

     Forces acting on atoms (cartesian axes, Ry/au):

     atom    1 type  1   force =     0.00000000    0.00000000    0.00000000
     atom    2 type  1   force =     0.00000000    0.00000000   -0.00000000
     atom    3 type  3   force =     0.00000000    0.00000000    0.00000000
     atom    4 type  3   force =     0.00000000    0.00000000    0.00000000
     atom    5 type  2   force =    -0.00210248   -0.00292772   -0.00268261
     atom    6 type  2   force =    -0.00292772    0.00210248   -0.00268261
     atom    7 type  2   force =    -0.00292772    0.00210248    0.00268261
     atom    8 type  2   force =    -0.00210248   -0.00292772    0.00268261
     atom    9 type  2   force =     0.00210248    0.00292772   -0.00268261
     atom   10 type  2   force =     0.00210248    0.00292772    0.00268261
     atom   11 type  2   force =     0.00292772   -0.00210248    0.00268261
     atom   12 type  2   force =     0.00292772   -0.00210248   -0.00268261

     Total force =     0.012709     Total SCF correction =     0.000003


     Computing stress (Cartesian axis) and pressure

          total   stress  (Ry/bohr**3)                   (kbar)     P=       13.72
   0.00009511  -0.00000000   0.00000000           13.99       -0.00        0.00
   0.00000000   0.00009511   0.00000000            0.00       13.99        0.00
   0.00000000   0.00000000   0.00008956            0.00        0.00       13.18


     Writing output data file ./ecutrho/NaAlH4_663_75_225.save/

     init_run     :     15.11s CPU      4.47s WALL (       1 calls)
     electrons    :    351.91s CPU     80.84s WALL (       1 calls)
     forces       :      5.12s CPU      1.13s WALL (       1 calls)
     stress       :     25.74s CPU      7.13s WALL (       1 calls)

     Called by init_run:
     wfcinit      :     13.55s CPU      3.46s WALL (       1 calls)
     potinit      :      0.30s CPU      0.31s WALL (       1 calls)
     hinit0       :      0.60s CPU      0.46s WALL (       1 calls)

     Called by electrons:
     c_bands      :    290.73s CPU     64.27s WALL (       8 calls)
     sum_band     :     54.82s CPU     13.17s WALL (       8 calls)
     v_of_rho     :      1.00s CPU      0.53s WALL (       9 calls)
     newd         :      4.21s CPU      1.64s WALL (       9 calls)
     PAW_pot      :      1.58s CPU      1.58s WALL (       9 calls)
     mix_rho      :      0.23s CPU      0.07s WALL (       8 calls)

     Called by c_bands:
     init_us_2    :     14.93s CPU      2.99s WALL (     570 calls)
     cegterg      :    253.73s CPU     55.25s WALL (     240 calls)

     Called by *egterg:
     cdiaghg      :      4.69s CPU      0.46s WALL (    1173 calls)
     h_psi        :    207.89s CPU     52.59s WALL (    1203 calls)
     s_psi        :     12.43s CPU      1.14s WALL (    1203 calls)
     g_psi        :      4.80s CPU      0.59s WALL (     933 calls)

     Called by h_psi:
     h_psi:calbec :     10.93s CPU      1.71s WALL (    1203 calls)
     vloc_psi     :    179.94s CPU     49.10s WALL (    1203 calls)
     add_vuspsi   :     15.35s CPU      1.50s WALL (    1203 calls)

     General routines
     calbec       :     14.91s CPU      2.42s WALL (    1593 calls)
     fft          :      0.88s CPU      0.43s WALL (     124 calls)
     ffts         :      0.15s CPU      0.03s WALL (       8 calls)
     fftw         :    183.56s CPU     50.85s WALL (   33582 calls)

     Parallel routines

     PWSCF        :   6m38.21s CPU   1m33.86s WALL


   This run was terminated on:  22: 6:43  17Oct2023            

=------------------------------------------------------------------------------=
   JOB DONE.
=------------------------------------------------------------------------------=
