
     Program PWSCF v.6.7MaX starts on 17Oct2023 at 22: 3: 0 

     This program is part of the open-source Quantum ESPRESSO suite
     for quantum simulation of materials; please cite
         "P. Giannozzi et al., J. Phys.:Condens. Matter 21 395502 (2009);
         "P. Giannozzi et al., J. Phys.:Condens. Matter 29 465901 (2017);
          URL http://www.quantum-espresso.org", 
     in publications or presentations arising from this work. More details at
     http://www.quantum-espresso.org/quote

     Parallel version (MPI), running on     1 processors

     MPI processes distributed on     1 nodes
     Reading input from NaAlH4.in

     Current dimensions of program PWSCF are:
     Max number of different atomic species (ntypx) = 10
     Max number of k-points (npk) =  40000
     Max angular momentum in pseudopotentials (lmaxx) =  3
     file Al.pbe-n-kjpaw_psl.1.0.0.UPF: wavefunction(s)  3S 3P renormalized

     IMPORTANT: XC functional enforced from input :
     Exchange-correlation= PBE
                           (   1   4   3   4   0   0   0)
     Any further DFT definition will be discarded
     Please, verify this is what you really want

     Message from routine set_cutoff:
     ecutrho < 4*ecutwfc, are you sure?

     Subspace diagonalization in iterative solution of the eigenvalue problem:
     a serial algorithm will be used

     Message from routine setup:
     using ibrav=0 with symmetry is DISCOURAGED, use correct ibrav instead

     G-vector sticks info
     --------------------
     sticks:   dense  smooth     PW     G-vecs:    dense   smooth      PW
     Sum        1041    1041    601                28061    28061   12507



     bravais-lattice index     =            0
     lattice parameter (alat)  =       9.3373  a.u.
     unit-cell volume          =     905.3038 (a.u.)^3
     number of atoms/cell      =           12
     number of atomic types    =            3
     number of electrons       =        32.00
     number of Kohn-Sham states=           20
     kinetic-energy cutoff     =      75.0000  Ry
     charge density cutoff     =     150.0000  Ry
     scf convergence threshold =      1.0E-08
     mixing beta               =       0.7000
     number of iterations used =            8  plain     mixing
     Exchange-correlation= PBE
                           (   1   4   3   4   0   0   0)

     celldm(1)=   9.337326  celldm(2)=   0.000000  celldm(3)=   0.000000
     celldm(4)=   0.000000  celldm(5)=   0.000000  celldm(6)=   0.000000

     crystal axes: (cart. coord. in units of alat)
               a(1) = (   1.000000   0.000000   0.000000 )  
               a(2) = (   0.000000   1.000000   0.000000 )  
               a(3) = (   0.500000   0.500000   1.112056 )  

     reciprocal axes: (cart. coord. in units 2 pi/alat)
               b(1) = (  1.000000  0.000000 -0.449617 )  
               b(2) = (  0.000000  1.000000 -0.449617 )  
               b(3) = (  0.000000  0.000000  0.899235 )  


     PseudoPot. # 1 for Al read from file:
     /home/vojta/Dokumenty/UA_CompPhys/pseudopotentials/Al.pbe-n-kjpaw_psl.1.0.0.UPF
     MD5 check sum: cfc449ca30b5f3223ec38ddd88ac046d
     Pseudo is Projector augmented-wave + core cor, Zval =  3.0
     Generated using "atomic" code by A. Dal Corso  v.5.1
     Shape of augmentation charge: PSQ
     Using radial grid of 1135 points,  6 beta functions with: 
                l(1) =   0
                l(2) =   0
                l(3) =   1
                l(4) =   1
                l(5) =   2
                l(6) =   2
     Q(r) pseudized with 0 coefficients 


     PseudoPot. # 2 for H  read from file:
     /home/vojta/Dokumenty/UA_CompPhys/pseudopotentials/H.pbe-rrkjus_psl.1.0.0.UPF
     MD5 check sum: f52b6d4d1c606e5624b1dc7b2218f220
     Pseudo is Ultrasoft, Zval =  1.0
     Generated using "atomic" code by A. Dal Corso  v.5.1
     Using radial grid of  929 points,  2 beta functions with: 
                l(1) =   0
                l(2) =   0
     Q(r) pseudized with 0 coefficients 


     PseudoPot. # 3 for Na read from file:
     /home/vojta/Dokumenty/UA_CompPhys/pseudopotentials/na_pbe_v1.5.uspp.F.UPF
     MD5 check sum: 44600605ef58000f06b90626533354dc
     Pseudo is Ultrasoft, Zval =  9.0
     Generated by new atomic code, or converted to UPF format
     Using radial grid of  819 points,  5 beta functions with: 
                l(1) =   0
                l(2) =   0
                l(3) =   1
                l(4) =   1
                l(5) =   2
     Q(r) pseudized with  8 coefficients,  rinner =    1.250   1.250   1.250
                                                       1.250   1.250

     atomic species   valence    mass     pseudopotential
        Al             3.00    26.98100     Al( 1.00)
        H              1.00     1.00750     H ( 1.00)
        Na             9.00    22.98900     Na( 1.00)

      8 Sym. Ops., with inversion, found ( 6 have fractional translation)



   Cartesian axes

     site n.     atom                  positions (alat units)
         1           Al  tau(   1) = (   1.0000000   0.2500000   0.2780141  )
         2           Al  tau(   2) = (   0.5000000   1.2500000   0.8340423  )
         3           Na  tau(   3) = (   0.5000000   0.7500000   0.2780141  )
         4           Na  tau(   4) = (   1.0000000   0.7500000   0.8340423  )
         5           H   tau(   5) = (   0.3578100   1.0135100   0.6538447  )
         6           H   tau(   6) = (   0.7635100   0.3921900   0.0978165  )
         7           H   tau(   7) = (   1.2635100   1.3921900   1.0142399  )
         8           H   tau(   8) = (   0.8578100   1.0135100   0.4582117  )
         9           H   tau(   9) = (   0.6421900   0.4864900   0.6538447  )
        10           H   tau(  10) = (   1.1421900   0.4864900   0.4582117  )
        11           H   tau(  11) = (   0.7364900   1.1078100   1.0142399  )
        12           H   tau(  12) = (   0.2364900   0.1078100   0.0978165  )

     number of k points=    30  Marzari-Vanderbilt smearing, width (Ry)=  0.0050
                       cart. coord. in units 2pi/alat
        k(    1) = (   0.0000000   0.0000000   0.0000000), wk =   0.0185185
        k(    2) = (   0.0000000   0.0000000   0.2997450), wk =   0.0370370
        k(    3) = (   0.0000000   0.1666667  -0.0749362), wk =   0.0740741
        k(    4) = (   0.0000000   0.1666667   0.2248087), wk =   0.0740741
        k(    5) = (   0.0000000   0.1666667  -0.3746812), wk =   0.0740741
        k(    6) = (   0.0000000   0.3333333  -0.1498725), wk =   0.1481481
        k(    7) = (   0.0000000   0.3333333  -0.4496175), wk =   0.0740741
        k(    8) = (   0.0000000  -0.5000000   0.2248087), wk =   0.0370370
        k(    9) = (   0.0000000  -0.5000000   0.5245537), wk =   0.0740741
        k(   10) = (   0.1666667   0.1666667  -0.1498725), wk =   0.0740741
        k(   11) = (   0.1666667   0.1666667  -0.4496175), wk =   0.0370370
        k(   12) = (   0.1666667   0.3333333  -0.2248087), wk =   0.0740741
        k(   13) = (   0.1666667   0.3333333   0.0749362), wk =   0.0740741
        k(   14) = (   0.1666667   0.3333333  -0.5245537), wk =   0.0740741
        k(   15) = (   0.1666667  -0.5000000   0.1498725), wk =   0.0740741
        k(   16) = (   0.1666667  -0.5000000   0.4496175), wk =   0.0370370
        k(   17) = (   0.1666667  -0.1666667  -0.0000000), wk =   0.0370370
        k(   18) = (   0.1666667  -0.1666667   0.2997450), wk =   0.0740741
        k(   19) = (   0.3333333   0.3333333  -0.2997450), wk =   0.1481481
        k(   20) = (   0.3333333   0.3333333   0.0000000), wk =   0.0740741
        k(   21) = (   0.3333333  -0.5000000   0.0749362), wk =   0.0740741
        k(   22) = (   0.3333333  -0.5000000  -0.2248087), wk =   0.0740741
        k(   23) = (  -0.5000000  -0.5000000   0.4496175), wk =   0.0185185
        k(   24) = (  -0.5000000  -0.5000000   0.7493625), wk =   0.0370370
        k(   25) = (   0.3333333   0.1666667   0.2248087), wk =   0.0740741
        k(   26) = (   0.3333333   0.1666667  -0.0749362), wk =   0.0740741
        k(   27) = (   0.3333333   0.1666667   0.5245537), wk =   0.0740741
        k(   28) = (  -0.5000000   0.1666667  -0.1498725), wk =   0.0740741
        k(   29) = (  -0.5000000   0.1666667  -0.4496175), wk =   0.0370370
        k(   30) = (  -0.5000000   0.3333333  -0.0749362), wk =   0.0740741

     Dense  grid:    28061 G-vectors     FFT dimensions: (  40,  40,  48)

     Estimated max dynamical RAM per process >     216.67 MB

     Initial potential from superposition of free atoms

     starting charge   31.98276, renormalised to   32.00000
     Starting wfcs are   26 randomized atomic wfcs
     Checking if some PAW data can be deallocated... 

     total cpu time spent up to now is        3.3 secs

     Self-consistent Calculation

     iteration #  1     ecut=    75.00 Ry     beta= 0.70
     Davidson diagonalization with overlap
     ethr =  1.00E-02,  avg # of iterations =  3.8

     total cpu time spent up to now is       10.6 secs

     total energy              =    -279.10944241 Ry
     estimated scf accuracy    <       0.55180970 Ry

     iteration #  2     ecut=    75.00 Ry     beta= 0.70
     Davidson diagonalization with overlap
     ethr =  1.72E-03,  avg # of iterations =  2.0

     total cpu time spent up to now is       16.8 secs

     total energy              =    -279.14580113 Ry
     estimated scf accuracy    <       0.01006175 Ry

     iteration #  3     ecut=    75.00 Ry     beta= 0.70
     Davidson diagonalization with overlap
     ethr =  3.14E-05,  avg # of iterations =  9.2

     total cpu time spent up to now is       25.9 secs

     total energy              =    -279.14861673 Ry
     estimated scf accuracy    <       0.00036797 Ry

     iteration #  4     ecut=    75.00 Ry     beta= 0.70
     Davidson diagonalization with overlap
     c_bands:  1 eigenvalues not converged
     ethr =  1.15E-06,  avg # of iterations =  4.9

     total cpu time spent up to now is       33.6 secs

     total energy              =    -279.14871924 Ry
     estimated scf accuracy    <       0.00004324 Ry

     iteration #  5     ecut=    75.00 Ry     beta= 0.70
     Davidson diagonalization with overlap
     ethr =  1.35E-07,  avg # of iterations =  2.3

     total cpu time spent up to now is       40.1 secs

     total energy              =    -279.14872686 Ry
     estimated scf accuracy    <       0.00000495 Ry

     iteration #  6     ecut=    75.00 Ry     beta= 0.70
     Davidson diagonalization with overlap
     ethr =  1.55E-08,  avg # of iterations =  2.1

     total cpu time spent up to now is       46.6 secs

     total energy              =    -279.14872743 Ry
     estimated scf accuracy    <       0.00000005 Ry

     iteration #  7     ecut=    75.00 Ry     beta= 0.70
     Davidson diagonalization with overlap
     ethr =  1.46E-10,  avg # of iterations =  4.7

     total cpu time spent up to now is       54.8 secs

     total energy              =    -279.14872747 Ry
     estimated scf accuracy    <       0.00000002 Ry

     iteration #  8     ecut=    75.00 Ry     beta= 0.70
     Davidson diagonalization with overlap
     ethr =  7.11E-11,  avg # of iterations =  2.0

     total cpu time spent up to now is       61.3 secs

     End of self-consistent calculation

          k = 0.0000 0.0000 0.0000 (  9889 PWs)   bands (ev):

   -49.8260 -49.8244 -21.7589 -21.7512 -21.7512 -21.7452 -21.7452 -21.7349
    -6.2369  -2.9953  -2.2681  -1.2826  -1.2826  -0.8763  -0.8763  -0.1025
     4.7480   4.8214   5.4563   6.2878

          k = 0.0000 0.0000 0.2997 (  9928 PWs)   bands (ev):

   -49.8256 -49.8248 -21.7538 -21.7538 -21.7530 -21.7427 -21.7427 -21.7410
    -5.7834  -4.5049  -1.7340  -1.7340  -0.9765  -0.2802  -0.2151  -0.2151
     4.7970   4.9053   6.5020   6.5022

          k = 0.0000 0.1667-0.0749 (  9902 PWs)   bands (ev):

   -49.8259 -49.8245 -21.7585 -21.7518 -21.7516 -21.7450 -21.7447 -21.7354
    -6.0837  -3.2972  -2.0373  -1.6828  -1.2851  -0.9710  -0.7838  -0.0325
     4.8896   5.3423   5.6387   6.3127

          k = 0.0000 0.1667 0.2248 (  9922 PWs)   bands (ev):

   -49.8257 -49.8247 -21.7560 -21.7533 -21.7530 -21.7434 -21.7434 -21.7382
    -5.8616  -4.0507  -2.0978  -1.5559  -1.2674  -0.5477  -0.4226  -0.0862
     4.8597   5.2729   6.2047   6.3662

          k = 0.0000 0.1667-0.3747 (  9926 PWs)   bands (ev):

   -49.8254 -49.8250 -21.7554 -21.7540 -21.7503 -21.7446 -21.7424 -21.7408
    -5.4289  -4.8058  -2.2778  -1.7108  -0.6920  -0.3637  -0.1754  -0.1471
     5.0212   5.3360   5.9729   6.4277

          k = 0.0000 0.3333-0.1499 (  9933 PWs)   bands (ev):

   -49.8257 -49.8247 -21.7578 -21.7533 -21.7523 -21.7440 -21.7439 -21.7367
    -5.6665  -3.8460  -2.3469  -1.9385  -1.2445  -0.7578  -0.6617  -0.0760
     5.1874   5.7153   6.0296   6.4414

          k = 0.0000 0.3333-0.4496 (  9943 PWs)   bands (ev):

   -49.8254 -49.8250 -21.7573 -21.7535 -21.7502 -21.7456 -21.7427 -21.7388
    -5.0929  -4.7379  -2.9384  -1.4999  -0.8051  -0.6199  -0.2734  -0.2313
     5.1596   5.6230   6.0822   6.7634

          k = 0.0000-0.5000 0.2248 (  9914 PWs)   bands (ev):

   -49.8256 -49.8248 -21.7572 -21.7542 -21.7527 -21.7436 -21.7431 -21.7377
    -5.3028  -4.2731  -2.5704  -2.0221  -1.1956  -0.6568  -0.3963  -0.2462
     5.4146   5.8212   5.9892   5.9903

          k = 0.0000-0.5000 0.5246 (  9928 PWs)   bands (ev):

   -49.8256 -49.8248 -21.7583 -21.7527 -21.7521 -21.7447 -21.7435 -21.7371
    -5.3148  -4.2039  -2.8876  -1.5385  -1.2023  -0.7781  -0.5853  -0.1729
     5.2909   5.6902   6.0278   6.6356

          k = 0.1667 0.1667-0.1499 (  9925 PWs)   bands (ev):

   -49.8258 -49.8246 -21.7576 -21.7533 -21.7519 -21.7450 -21.7433 -21.7365
    -5.8790  -3.6544  -1.9231  -1.8586  -1.4686  -0.9403  -0.5925  -0.0550
     5.3179   5.3380   5.8079   6.5172

          k = 0.1667 0.1667-0.4496 (  9962 PWs)   bands (ev):

   -49.8252 -49.8252 -21.7554 -21.7552 -21.7479 -21.7474 -21.7411 -21.7408
    -5.0471  -5.0423  -2.2212  -2.1857  -0.4845  -0.3770  -0.2876  -0.2190
     5.3021   5.3713   6.0867   6.1375

          k = 0.1667 0.3333-0.2248 (  9936 PWs)   bands (ev):

   -49.8256 -49.8248 -21.7569 -21.7548 -21.7520 -21.7451 -21.7418 -21.7377
    -5.4335  -4.0530  -2.5075  -1.7687  -1.4907  -0.8586  -0.5737  -0.1013
     5.3648   5.5993   6.2611   6.4100

          k = 0.1667 0.3333 0.0749 (  9931 PWs)   bands (ev):

   -49.8257 -49.8247 -21.7585 -21.7537 -21.7510 -21.7462 -21.7429 -21.7360
    -5.6206  -3.6378  -2.2405  -1.8721  -1.4662  -1.2051  -0.8764  -0.0626
     5.2281   5.6511   6.0883   6.8868

          k = 0.1667 0.3333-0.5246 (  9926 PWs)   bands (ev):

   -49.8254 -49.8250 -21.7571 -21.7546 -21.7506 -21.7458 -21.7416 -21.7388
    -5.0976  -4.5424  -2.7973  -1.8863  -0.9191  -0.6244  -0.3896  -0.3509
     5.3724   5.7869   5.9491   6.4243

          k = 0.1667-0.5000 0.1499 (  9928 PWs)   bands (ev):

   -49.8255 -49.8249 -21.7577 -21.7546 -21.7517 -21.7455 -21.7418 -21.7374
    -5.1920  -4.2061  -2.6306  -1.8009  -1.4883  -0.9251  -0.4864  -0.3536
     5.4120   5.6558   6.1985   6.5417

          k = 0.1667-0.5000 0.4496 (  9933 PWs)   bands (ev):

   -49.8255 -49.8249 -21.7583 -21.7543 -21.7503 -21.7468 -21.7420 -21.7371
    -5.2054  -4.1385  -2.8331  -1.6474  -1.3044  -1.0029  -0.8049  -0.1068
     5.0858   5.6693   6.1513   6.4800

          k = 0.1667-0.1667-0.0000 (  9916 PWs)   bands (ev):

   -49.8258 -49.8245 -21.7589 -21.7523 -21.7510 -21.7459 -21.7442 -21.7352
    -5.9881  -3.2067  -2.0797  -1.5611  -1.4887  -1.3316  -0.8423  -0.0399
     5.4261   5.4802   5.5618   6.1237

          k = 0.1667-0.1667 0.2997 (  9925 PWs)   bands (ev):

   -49.8255 -49.8249 -21.7553 -21.7547 -21.7519 -21.7443 -21.7418 -21.7396
    -5.5579  -4.3802  -2.1357  -2.0906  -0.9204  -0.5019  -0.3046  -0.1438
     5.2516   5.4315   5.9228   6.3467

          k = 0.3333 0.3333-0.2997 (  9932 PWs)   bands (ev):

   -49.8254 -49.8250 -21.7568 -21.7563 -21.7508 -21.7467 -21.7400 -21.7385
    -4.9902  -4.2453  -2.5311  -2.2110  -1.4057  -0.9443  -0.6548  -0.4238
     5.4900   5.5919   5.8796   6.5800

          k = 0.3333 0.3333 0.0000 (  9944 PWs)   bands (ev):

   -49.8256 -49.8248 -21.7585 -21.7548 -21.7503 -21.7475 -21.7417 -21.7363
    -5.3122  -3.7276  -1.9986  -1.9399  -1.8811  -1.3587  -1.1724  -0.2446
     4.8432   6.2832   6.6873   7.0543

          k = 0.3333-0.5000 0.0749 (  9934 PWs)   bands (ev):

   -49.8254 -49.8250 -21.7579 -21.7559 -21.7501 -21.7477 -21.7403 -21.7376
    -4.8779  -4.1735  -2.5007  -2.0325  -1.5502  -1.2932  -0.9525  -0.4273
     4.9501   5.7633   6.4601   6.9732

          k = 0.3333-0.5000-0.2248 (  9938 PWs)   bands (ev):

   -49.8254 -49.8250 -21.7574 -21.7564 -21.7506 -21.7473 -21.7399 -21.7379
    -4.8706  -4.1926  -2.4727  -1.9030  -1.7387  -1.3389  -0.8017  -0.5013
     5.3717   5.5373   6.2612   6.8276

          k =-0.5000-0.5000 0.4496 (  9930 PWs)   bands (ev):

   -49.8252 -49.8252 -21.7572 -21.7572 -21.7491 -21.7491 -21.7386 -21.7386
    -4.4536  -4.4536  -2.1092  -2.1092  -1.8363  -1.8363  -0.6590  -0.6590
     5.0473   5.0473   7.1983   7.1983

          k =-0.5000-0.5000 0.7494 (  9946 PWs)   bands (ev):

   -49.8252 -49.8252 -21.7572 -21.7572 -21.7491 -21.7491 -21.7387 -21.7387
    -4.4515  -4.4515  -2.2576  -2.2576  -1.5729  -1.5729  -0.7995  -0.7995
     5.3676   5.3676   6.4595   6.4595

          k = 0.3333 0.1667 0.2248 (  9936 PWs)   bands (ev):

   -49.8256 -49.8248 -21.7569 -21.7549 -21.7519 -21.7451 -21.7418 -21.7377
    -5.4336  -4.0544  -2.4682  -1.8303  -1.5488  -0.7526  -0.4568  -0.2474
     5.4935   5.6368   5.9511   6.4102

          k = 0.3333 0.1667-0.0749 (  9931 PWs)   bands (ev):

   -49.8257 -49.8247 -21.7585 -21.7535 -21.7512 -21.7460 -21.7431 -21.7360
    -5.6202  -3.6440  -2.2483  -1.8337  -1.5207  -1.1676  -0.7823  -0.1991
     5.2279   5.9239   6.3418   6.6841

          k = 0.3333 0.1667 0.5246 (  9926 PWs)   bands (ev):

   -49.8254 -49.8250 -21.7569 -21.7550 -21.7503 -21.7462 -21.7412 -21.7389
    -5.1005  -4.5381  -2.7675  -1.9476  -1.0090  -0.5386  -0.4423  -0.2295
     5.3729   5.5141   5.8829   6.3418

          k =-0.5000 0.1667-0.1499 (  9928 PWs)   bands (ev):

   -49.8255 -49.8249 -21.7576 -21.7549 -21.7515 -21.7457 -21.7416 -21.7375
    -5.1935  -4.2010  -2.6134  -1.8365  -1.5211  -0.8750  -0.6468  -0.1622
     5.2487   5.6408   6.1760   6.5276

          k =-0.5000 0.1667-0.4496 (  9933 PWs)   bands (ev):

   -49.8255 -49.8249 -21.7584 -21.7539 -21.7508 -21.7463 -21.7424 -21.7370
    -5.2024  -4.1492  -2.8484  -1.6057  -1.2274  -0.8846  -0.8735  -0.3177
     5.2275   5.9278   6.2495   6.8611

          k =-0.5000 0.3333-0.0749 (  9934 PWs)   bands (ev):

   -49.8254 -49.8250 -21.7577 -21.7561 -21.7499 -21.7480 -21.7401 -21.7377
    -4.8818  -4.1633  -2.4768  -2.0704  -1.6168  -1.2635  -0.9529  -0.3574
     4.9292   5.7103   6.2920   6.8346

     the Fermi energy is    -0.0014 ev

!    total energy              =    -279.14872747 Ry
     estimated scf accuracy    <          4.5E-10 Ry
     smearing contrib. (-TS)   =       0.00035858 Ry
     internal energy E=F+TS    =    -279.14908605 Ry

     The total energy is F=E-TS. E is the sum of the following terms:
     one-electron contribution =    -172.69238536 Ry
     hartree contribution      =      92.93415552 Ry
     xc contribution           =     -39.59981509 Ry
     ewald contribution        =     -90.40844914 Ry
     one-center paw contrib.   =     -69.38259198 Ry

     convergence has been achieved in   8 iterations

     Forces acting on atoms (cartesian axes, Ry/au):

     atom    1 type  1   force =     0.00000000    0.00000000    0.00000000
     atom    2 type  1   force =     0.00000000    0.00000000    0.00000000
     atom    3 type  3   force =     0.00000000    0.00000000    0.00000000
     atom    4 type  3   force =     0.00000000    0.00000000    0.00000000
     atom    5 type  2   force =    -0.00209838   -0.00290886   -0.00266717
     atom    6 type  2   force =    -0.00290886    0.00209838   -0.00266717
     atom    7 type  2   force =    -0.00290886    0.00209838    0.00266717
     atom    8 type  2   force =    -0.00209838   -0.00290886    0.00266717
     atom    9 type  2   force =     0.00209838    0.00290886   -0.00266717
     atom   10 type  2   force =     0.00209838    0.00290886    0.00266717
     atom   11 type  2   force =     0.00290886   -0.00209838    0.00266717
     atom   12 type  2   force =     0.00290886   -0.00209838   -0.00266717

     Total force =     0.012642     Total SCF correction =     0.000003


     Computing stress (Cartesian axis) and pressure

          total   stress  (Ry/bohr**3)                   (kbar)     P=       14.14
   0.00009801  -0.00000000   0.00000000           14.42       -0.00        0.00
   0.00000000   0.00009801   0.00000000            0.00       14.42        0.00
   0.00000000  -0.00000000   0.00009230            0.00       -0.00       13.58


     Writing output data file ./ecutrho/NaAlH4_663_75_150.save/

     init_run     :     12.09s CPU      3.21s WALL (       1 calls)
     electrons    :    276.18s CPU     58.01s WALL (       1 calls)
     forces       :      4.25s CPU      0.86s WALL (       1 calls)
     stress       :     24.49s CPU      6.47s WALL (       1 calls)

     Called by init_run:
     wfcinit      :     10.91s CPU      2.46s WALL (       1 calls)
     potinit      :      0.22s CPU      0.23s WALL (       1 calls)
     hinit0       :      0.56s CPU      0.36s WALL (       1 calls)

     Called by electrons:
     c_bands      :    233.82s CPU     46.61s WALL (       8 calls)
     sum_band     :     37.09s CPU      8.83s WALL (       8 calls)
     v_of_rho     :      0.93s CPU      0.26s WALL (       9 calls)
     newd         :      2.39s CPU      0.91s WALL (       9 calls)
     PAW_pot      :      2.25s CPU      1.66s WALL (       9 calls)
     mix_rho      :      0.11s CPU      0.02s WALL (       8 calls)

     Called by c_bands:
     init_us_2    :     13.56s CPU      2.97s WALL (     570 calls)
     cegterg      :    198.20s CPU     37.53s WALL (     240 calls)

     Called by *egterg:
     cdiaghg      :      4.63s CPU      0.46s WALL (    1173 calls)
     h_psi        :    145.07s CPU     32.84s WALL (    1203 calls)
     s_psi        :      8.88s CPU      1.02s WALL (    1203 calls)
     g_psi        :      5.21s CPU      0.60s WALL (     933 calls)

     Called by h_psi:
     h_psi:calbec :      8.63s CPU      1.39s WALL (    1203 calls)
     vloc_psi     :    116.53s CPU     28.87s WALL (    1203 calls)
     add_vuspsi   :     15.44s CPU      1.51s WALL (    1203 calls)

     General routines
     calbec       :     11.68s CPU      1.84s WALL (    1593 calls)
     fft          :      0.42s CPU      0.13s WALL (     124 calls)
     ffts         :      0.04s CPU      0.01s WALL (       8 calls)
     fftw         :    119.31s CPU     30.11s WALL (   33588 calls)

     Parallel routines

     PWSCF        :   5m17.41s CPU   1m 8.82s WALL


   This run was terminated on:  22: 4: 9  17Oct2023            

=------------------------------------------------------------------------------=
   JOB DONE.
=------------------------------------------------------------------------------=
