==========================================
SLURM_CLUSTER_NAME = paramganga
SLURM_ARRAY_JOB_ID = 
SLURM_ARRAY_TASK_ID = 
SLURM_ARRAY_TASK_COUNT = 
SLURM_ARRAY_TASK_MAX = 
SLURM_ARRAY_TASK_MIN = 
SLURM_JOB_ACCOUNT = iitr
SLURM_JOB_ID = 168258
SLURM_JOB_NAME = 19280
SLURM_JOB_NODELIST = cn[001-003]
SLURM_JOB_USER = garima.iitr
SLURM_JOB_UID = 38339
SLURM_JOB_PARTITION = debug
SLURM_TASK_PID = 32571
SLURM_SUBMIT_DIR = /home/garima.iitr/.cache/.es/compmat/alh3
SLURM_CPUS_ON_NODE = 48
SLURM_NTASKS = 144
SLURM_TASK_PID = 32571
==========================================
cn001
 
:: initializing oneAPI environment ...
   slurm_script: BASH_VERSION = 4.2.46(2)-release
   args: Using "$@" for setvars.sh arguments: 
:: advisor -- latest
:: ccl -- latest
:: clck -- latest
:: compiler -- latest
:: dal -- latest
:: debugger -- latest
:: dev-utilities -- latest
:: dnnl -- latest
:: dpcpp-ct -- latest
:: dpl -- latest
:: inspector -- latest
:: intelpython -- latest
:: ipp -- latest
:: ippcp -- latest
:: ipp -- latest
:: itac -- latest
:: mkl -- latest
:: mpi -- latest
:: tbb -- latest
:: vpl -- latest
:: vtune -- latest
:: oneAPI environment initialized ::
 
Job execution start: Tue Oct 31 18:59:38 IST 2023
Job submitted by garima.iitr
The job ID is:168258

     Program PWSCF v.7.1 starts on 31Oct2023 at 18:59:43 

     This program is part of the open-source Quantum ESPRESSO suite
     for quantum simulation of materials; please cite
         "P. Giannozzi et al., J. Phys.:Condens. Matter 21 395502 (2009);
         "P. Giannozzi et al., J. Phys.:Condens. Matter 29 465901 (2017);
         "P. Giannozzi et al., J. Chem. Phys. 152 154105 (2020);
          URL http://www.quantum-espresso.org", 
     in publications or presentations arising from this work. More details at
     http://www.quantum-espresso.org/quote

     Parallel version (MPI & OpenMP), running on     144 processor cores
     Number of MPI processes:               144
     Threads/MPI process:                     1

     MPI processes distributed on     3 nodes
     167583 MiB available memory on the printing compute node when the environment starts
 
     Reading input from alh3.in

     Current dimensions of program PWSCF are:
     Max number of different atomic species (ntypx) = 10
     Max number of k-points (npk) =  40000
     Max angular momentum in pseudopotentials (lmaxx) =  4
     Message from routine volume:
     axis vectors are left-handed
     file Al.pbe-n-kjpaw_psl.1.0.0.UPF: wavefunction(s)  3S 3P renormalized

     IMPORTANT: XC functional enforced from input :
     Exchange-correlation= PBE
                           (   1   4   3   4   0   0   0)
     Any further DFT definition will be discarded
     Please, verify this is what you really want

     Message from routine setup:
     using ibrav=0 with symmetry is DISCOURAGED, use correct ibrav instead
 
     K-points division:     npool     =       4
     R & G space division:  proc/nbgrp/npool/nimage =      36
     Subspace diagonalization in iterative solution of the eigenvalue problem:
     a serial algorithm will be used

 
     Parallelization info
     --------------------
     sticks:   dense  smooth     PW     G-vecs:    dense   smooth      PW
     Min         102      83     22                 4150     2978     430
     Max         103      84     23                 4157     2981     435
     Sum        3697    2989    823               149509   107227   15593
 
     Using Slab Decomposition
 


     bravais-lattice index     =            0
     lattice parameter (alat)  =      16.9673  a.u.
     unit-cell volume          =    1221.1724 (a.u.)^3
     number of atoms/cell      =           16
     number of atomic types    =            2
     number of electrons       =        24.00
     number of Kohn-Sham states=           16
     kinetic-energy cutoff     =      75.0000  Ry
     charge density cutoff     =     375.0000  Ry
     scf convergence threshold =      1.0E-08
     mixing beta               =       0.7000
     number of iterations used =            8  plain     mixing
     energy convergence thresh.=      1.0E-04
     force convergence thresh. =      1.0E-03
     press convergence thresh. =      5.0E-01
     Exchange-correlation= PBE
                           (   1   4   3   4   0   0   0)
     nstep                     =           50


     celldm(1)=  16.967284  celldm(2)=   0.000000  celldm(3)=   0.000000
     celldm(4)=   0.000000  celldm(5)=   0.000000  celldm(6)=   0.000000

     crystal axes: (cart. coord. in units of alat)
               a(1) = (   0.500000   0.500000   0.000000 )  
               a(2) = (   0.500000   0.000000   0.500000 )  
               a(3) = (   0.000000   0.500000   0.500000 )  

     reciprocal axes: (cart. coord. in units 2 pi/alat)
               b(1) = (  1.000000  1.000000 -1.000000 )  
               b(2) = (  1.000000 -1.000000  1.000000 )  
               b(3) = ( -1.000000  1.000000  1.000000 )  


     PseudoPot. # 1 for H  read from file:
     /home/garima.iitr/.cache/.es/compmat/naalh4/H.pbe-rrkjus_psl.1.0.0.UPF
     MD5 check sum: 3f4114867bd07edc7f1424d066fc1888
     Pseudo is Ultrasoft, Zval =  1.0
     Generated using &quot;atomic&quot; code by A. Dal Corso  v.6.3MaX
     Using radial grid of  929 points,  2 beta functions with: 
                l(1) =   0
                l(2) =   0
     Q(r) pseudized with 0 coefficients 


     PseudoPot. # 2 for Al read from file:
     /home/garima.iitr/.cache/.es/compmat/naalh4/Al.pbe-n-kjpaw_psl.1.0.0.UPF
     MD5 check sum: 502b6b27b9c6270cab5dd1084b96fa6d
     Pseudo is Projector augmented-wave + core cor, Zval =  3.0
     Generated using &quot;atomic&quot; code by A. Dal Corso  v.6.3
     Shape of augmentation charge: PSQ
     Using radial grid of 1135 points,  6 beta functions with: 
                l(1) =   0
                l(2) =   0
                l(3) =   1
                l(4) =   1
                l(5) =   2
                l(6) =   2
     Q(r) pseudized with 0 coefficients 


     atomic species   valence    mass     pseudopotential
        H              1.00     1.00750     H ( 1.00)
        Al             3.00    26.98100     Al( 1.00)

     48 Sym. Ops., with inversion, found (36 have fractional translation)



   Cartesian axes

     site n.     atom                  positions (alat units)
         1           Al  tau(   1) = (   0.0000000   0.0000000   0.0000000  )
         2           Al  tau(   2) = (   0.2500000   0.0000000   0.2500000  )
         3           Al  tau(   3) = (   0.0000000   0.2500000   0.2500000  )
         4           Al  tau(   4) = (   0.2500000   0.2500000   0.0000000  )
         5           H   tau(   5) = (   0.3219678   0.6250000   0.6250000  )
         6           H   tau(   6) = (   0.3750000   0.6780322   0.3750000  )
         7           H   tau(   7) = (   0.9280322   0.6250000   0.6250000  )
         8           H   tau(   8) = (   0.6250000   0.6250000   0.9280322  )
         9           H   tau(   9) = (   0.0719678   0.3750000   0.3750000  )
        10           H   tau(  10) = (   0.6250000   0.3219678   0.6250000  )
        11           H   tau(  11) = (   0.3750000   0.3750000   0.0719678  )
        12           H   tau(  12) = (   0.6780322   0.3750000   0.3750000  )
        13           H   tau(  13) = (   0.3750000   0.3750000   0.6780322  )
        14           H   tau(  14) = (   0.6250000   0.6250000   0.3219678  )
        15           H   tau(  15) = (   0.6250000   0.9280322   0.6250000  )
        16           H   tau(  16) = (   0.3750000   0.0719678   0.3750000  )

     number of k points=    16  Marzari-Vanderbilt smearing, width (Ry)=  0.0050
                       cart. coord. in units 2pi/alat
        k(    1) = (   0.0000000   0.0000000   0.0000000), wk =   0.0092593
        k(    2) = (  -0.1666667   0.1666667   0.1666667), wk =   0.0740741
        k(    3) = (  -0.3333333   0.3333333   0.3333333), wk =   0.0740741
        k(    4) = (   0.5000000  -0.5000000  -0.5000000), wk =   0.0370370
        k(    5) = (   0.0000000   0.0000000   0.3333333), wk =   0.0555556
        k(    6) = (  -0.1666667   0.1666667   0.5000000), wk =   0.2222222
        k(    7) = (   0.6666667  -0.6666667  -0.3333333), wk =   0.2222222
        k(    8) = (   0.5000000  -0.5000000  -0.1666667), wk =   0.2222222
        k(    9) = (   0.3333333  -0.3333333   0.0000000), wk =   0.1111111
        k(   10) = (   0.0000000   0.0000000   0.6666667), wk =   0.0555556
        k(   11) = (   0.8333333  -0.8333333  -0.1666667), wk =   0.2222222
        k(   12) = (   0.6666667  -0.6666667  -0.0000000), wk =   0.1111111
        k(   13) = (   0.0000000   0.0000000  -1.0000000), wk =   0.0277778
        k(   14) = (   1.0000000  -0.6666667  -0.3333333), wk =   0.2222222
        k(   15) = (   0.8333333  -0.5000000  -0.1666667), wk =   0.2222222
        k(   16) = (   0.0000000   0.3333333  -1.0000000), wk =   0.1111111

     Dense  grid:   149509 G-vectors     FFT dimensions: (  80,  80,  80)

     Smooth grid:   107227 G-vectors     FFT dimensions: (  72,  72,  72)

     Estimated max dynamical RAM per process >      13.94 MB

     Estimated total dynamical RAM >       1.85 GB

     Initial potential from superposition of free atoms

     starting charge      23.9907, renormalised to      24.0000
     Starting wfcs are   28 randomized atomic wfcs
     Checking if some PAW data can be deallocated... 

     total cpu time spent up to now is        0.8 secs

     Self-consistent Calculation

     iteration #  1     ecut=    75.00 Ry     beta= 0.70
     Davidson diagonalization with overlap
     ethr =  1.00E-02,  avg # of iterations =  3.9

     total cpu time spent up to now is        1.0 secs

     total energy              =    -171.98163707 Ry
     estimated scf accuracy    <       0.70159876 Ry

     iteration #  2     ecut=    75.00 Ry     beta= 0.70
     Davidson diagonalization with overlap
     ethr =  2.92E-03,  avg # of iterations =  1.2

     total cpu time spent up to now is        1.1 secs

     total energy              =    -172.01683804 Ry
     estimated scf accuracy    <       0.01890633 Ry

     iteration #  3     ecut=    75.00 Ry     beta= 0.70
     Davidson diagonalization with overlap
     ethr =  7.88E-05,  avg # of iterations = 11.8

     total cpu time spent up to now is        1.3 secs

     total energy              =    -172.02261478 Ry
     estimated scf accuracy    <       0.00075990 Ry

     iteration #  4     ecut=    75.00 Ry     beta= 0.70
     Davidson diagonalization with overlap
     ethr =  3.17E-06,  avg # of iterations =  9.8

     total cpu time spent up to now is        1.5 secs

     total energy              =    -172.02279905 Ry
     estimated scf accuracy    <       0.00053641 Ry

     iteration #  5     ecut=    75.00 Ry     beta= 0.70
     Davidson diagonalization with overlap
     ethr =  2.24E-06,  avg # of iterations =  1.4

     total cpu time spent up to now is        1.6 secs

     total energy              =    -172.02281161 Ry
     estimated scf accuracy    <       0.00004775 Ry

     iteration #  6     ecut=    75.00 Ry     beta= 0.70
     Davidson diagonalization with overlap
     ethr =  1.99E-07,  avg # of iterations =  2.9

     total cpu time spent up to now is        1.8 secs

     total energy              =    -172.02282689 Ry
     estimated scf accuracy    <       0.00000147 Ry

     iteration #  7     ecut=    75.00 Ry     beta= 0.70
     Davidson diagonalization with overlap
     ethr =  6.14E-09,  avg # of iterations =  3.9

     total cpu time spent up to now is        1.9 secs

     total energy              =    -172.02282749 Ry
     estimated scf accuracy    <       0.00000011 Ry

     iteration #  8     ecut=    75.00 Ry     beta= 0.70
     Davidson diagonalization with overlap
     ethr =  4.71E-10,  avg # of iterations =  2.4

     total cpu time spent up to now is        2.1 secs

     total energy              =    -172.02282750 Ry
     estimated scf accuracy    <       0.00000011 Ry

     iteration #  9     ecut=    75.00 Ry     beta= 0.70
     Davidson diagonalization with overlap
     ethr =  4.71E-10,  avg # of iterations =  2.0

     total cpu time spent up to now is        2.2 secs

     End of self-consistent calculation

          k = 0.0000 0.0000 0.0000 ( 13371 PWs)   bands (ev):

    -9.1130  -4.9251  -4.9251  -4.9251  -4.7732  -4.0358  -4.0358  -4.0358
    -3.6492  -3.6492  -0.1606  -0.1606   3.3233   4.7369   4.7369   4.7369

          k =-0.1667 0.1667 0.1667 ( 13443 PWs)   bands (ev):

    -9.0068  -5.8906  -5.1116  -5.1116  -4.4253  -3.8977  -3.8977  -3.4518
    -3.4518  -3.3520  -0.3724  -0.3724   3.5815   4.5267   4.9949   4.9950

          k =-0.3333 0.3333 0.3333 ( 13413 PWs)   bands (ev):

    -8.7231  -6.8034  -5.3443  -5.3443  -4.4239  -3.8814  -3.8814  -2.8020
    -2.8020  -2.3026  -0.9374  -0.9374   3.9188   4.2957   4.7990   5.2694

          k = 0.5000-0.5000-0.5000 ( 13396 PWs)   bands (ev):

    -8.4979  -7.2445  -5.4311  -5.4311  -4.4351  -3.8938  -3.8938  -2.2543
    -2.2543  -1.8039  -1.4541  -1.4541   3.4785   4.3198   5.1380   5.1380

          k = 0.0000 0.0000 0.3333 ( 13439 PWs)   bands (ev):

    -8.9693  -5.9411  -5.3180  -5.3180  -4.1058  -4.0687  -3.4967  -3.4464
    -3.4464  -3.3303  -0.5674  -0.2899   3.6696   4.7881   4.7882   4.8711

          k =-0.1667 0.1667 0.5000 ( 13390 PWs)   bands (ev):

    -8.7334  -6.6672  -5.5646  -5.5227  -4.1109  -3.8706  -3.5337  -3.2619
    -2.7501  -2.4079  -1.0775  -0.6209   4.1274   4.2280   4.5051   4.9147

          k = 0.6667-0.6667-0.3333 ( 13378 PWs)   bands (ev):

    -8.4279  -7.2619  -5.7721  -5.5747  -4.1515  -3.6716  -3.5945  -2.8029
    -2.2513  -1.7021  -1.5233  -1.1875   3.5436   4.3394   4.5723   4.9358

          k = 0.5000-0.5000-0.1667 ( 13395 PWs)   bands (ev):

    -8.5217  -7.1065  -5.8085  -5.4555  -4.1714  -3.6509  -3.5966  -2.8228
    -2.6966  -1.6807  -1.4712  -1.0081   3.7653   4.5273   4.5809   4.7279

          k = 0.3333-0.3333 0.0000 ( 13419 PWs)   bands (ev):

    -8.8360  -6.4335  -5.5904  -5.2199  -4.2237  -3.7920  -3.6000  -3.3415
    -3.2914  -2.5206  -0.8470  -0.5291   3.9799   4.4887   4.6234   5.2071

          k = 0.0000 0.0000 0.6667 ( 13384 PWs)   bands (ev):

    -8.5463  -6.9792  -5.7252  -5.7252  -4.1240  -4.0755  -3.0481  -2.5662
    -2.5662  -2.3734  -1.4403  -0.7103   3.6963   3.6963   4.5964   5.4201

          k = 0.8333-0.8333-0.1667 ( 13390 PWs)   bands (ev):

    -8.2148  -7.4740  -5.9431  -5.7856  -4.1183  -3.7881  -2.9574  -2.6116
    -2.2464  -1.7689  -1.6616  -1.0862   3.2853   3.4080   5.0168   5.4912

          k = 0.6667-0.6667-0.0000 ( 13374 PWs)   bands (ev):

    -8.1950  -7.5025  -6.0690  -5.6769  -4.1186  -3.1500  -3.1281  -2.9463
    -2.7111  -1.7055  -1.3175  -1.1777   3.4350   3.7362   4.6045   5.1540

          k = 0.0000 0.0000-1.0000 ( 13424 PWs)   bands (ev):

    -7.8686  -7.8686  -5.8701  -5.8701  -4.1301  -4.1301  -2.3355  -2.3355
    -2.1210  -2.1210  -1.4335  -1.4335   3.0480   3.0480   5.6357   5.6358

          k = 1.0000-0.6667-0.3333 ( 13390 PWs)   bands (ev):

    -8.4504  -7.1539  -5.9030  -5.6608  -3.9164  -3.7440  -3.4082  -2.7588
    -2.6917  -1.6717  -1.5829  -0.9240   3.7732   3.8071   4.7604   4.9200

          k = 0.8333-0.5000-0.1667 ( 13378 PWs)   bands (ev):

    -8.1947  -7.5047  -6.0095  -5.7643  -3.8839  -3.5637  -3.0585  -3.0197
    -2.4445  -1.7021  -1.3464  -1.2116   3.4525   3.6813   4.8419   5.0508

          k = 0.0000 0.3333-1.0000 ( 13402 PWs)   bands (ev):

    -7.8602  -7.8602  -5.9481  -5.9481  -3.7892  -3.7892  -2.8750  -2.8750
    -2.0229  -2.0229  -1.2872  -1.2872   3.2728   3.2728   5.2081   5.2081

     the Fermi energy is     2.2887 ev

!    total energy              =    -172.02282752 Ry
     estimated scf accuracy    <          1.5E-10 Ry
     smearing contrib. (-TS)   =      -0.00000000 Ry
     internal energy E=F+TS    =    -172.02282752 Ry

     The total energy is F=E-TS. E is the sum of the following terms:
     one-electron contribution =      -5.87976288 Ry
     hartree contribution      =       9.80894590 Ry
     xc contribution           =     -19.04190706 Ry
     ewald contribution        =     -18.22747141 Ry
     one-center paw contrib.   =    -138.68263206 Ry

     convergence has been achieved in   9 iterations

     Forces acting on atoms (cartesian axes, Ry/au):

     atom    1 type  2   force =    -0.00000000    0.00000000    0.00000000
     atom    2 type  2   force =     0.00000000   -0.00000000   -0.00000000
     atom    3 type  2   force =    -0.00000000    0.00000000    0.00000000
     atom    4 type  2   force =    -0.00000000   -0.00000000    0.00000000
     atom    5 type  1   force =     0.00000301   -0.00000000   -0.00000000
     atom    6 type  1   force =     0.00000000   -0.00000301    0.00000000
     atom    7 type  1   force =    -0.00000301    0.00000000   -0.00000000
     atom    8 type  1   force =     0.00000000   -0.00000000   -0.00000301
     atom    9 type  1   force =     0.00000301   -0.00000000    0.00000000
     atom   10 type  1   force =     0.00000000    0.00000301    0.00000000
     atom   11 type  1   force =     0.00000000    0.00000000    0.00000301
     atom   12 type  1   force =    -0.00000301   -0.00000000   -0.00000000
     atom   13 type  1   force =     0.00000000    0.00000000   -0.00000301
     atom   14 type  1   force =     0.00000000    0.00000000    0.00000301
     atom   15 type  1   force =     0.00000000   -0.00000301    0.00000000
     atom   16 type  1   force =     0.00000000    0.00000301    0.00000000

     Total force =     0.000010     Total SCF correction =     0.000004
     SCF correction compared to forces is large: reduce conv_thr to get better values


     Computing stress (Cartesian axis) and pressure

          total   stress  (Ry/bohr**3)                   (kbar)     P=       11.75
   0.00007987  -0.00000000  -0.00000000           11.75       -0.00       -0.00
   0.00000000   0.00007987  -0.00000000            0.00       11.75       -0.00
  -0.00000000  -0.00000000   0.00007987           -0.00       -0.00       11.75


     BFGS Geometry Optimization
     Energy error            =      0.0E+00 Ry
     Gradient error          =      3.0E-06 Ry/Bohr
     Cell gradient error     =      1.2E+01 kbar

     number of scf cycles    =   1
     number of bfgs steps    =   0

     enthalpy           new  =    -172.0228275154 Ry

     new trust radius        =       0.0139557749 bohr
     Message from routine volume:
     axis vectors are left-handed
     new conv_thr            =       0.0000000100 Ry

     new unit-cell volume =   1228.50238 a.u.^3 (   182.04527 Ang^3 )
     density =      1.09472 g/cm^3

CELL_PARAMETERS (alat= 16.96728396)
   0.500998402   0.500998402  -0.000000000
   0.500998402  -0.000000000   0.500998402
  -0.000000000   0.500998402   0.500998402

ATOMIC_POSITIONS (crystal)
Al            0.0000000000       -0.0000000000        0.0000000000
Al            0.0000000000        0.5000000000        0.0000000000
Al            0.0000000000        0.0000000000        0.5000000000
Al            0.5000000000       -0.0000000000       -0.0000000000
H             0.3219679709        0.3219679709        0.9280320291
H             0.6780320291        0.0719679709        0.6780320291
H             0.9280320291        0.9280320291        0.3219679709
H             0.3219679709        0.9280320291        0.9280320291
H             0.0719679709        0.0719679709        0.6780320291
H             0.3219679709        0.9280320291        0.3219679709
H             0.6780320291        0.0719679709        0.0719679709
H             0.6780320291        0.6780320291        0.0719679709
H             0.0719679709        0.6780320291        0.6780320291
H             0.9280320291        0.3219679709        0.3219679709
H             0.9280320291        0.3219679709        0.9280320291
H             0.0719679709        0.6780320291        0.0719679709



     Writing config-only to output data dir temp/alh3.save/
     NEW-OLD atomic charge density approx. for the potential
     extrapolated charge   24.14314, renormalised to   24.00000

     total cpu time spent up to now is        2.7 secs

     Self-consistent Calculation

     iteration #  1     ecut=    75.00 Ry     beta= 0.70
     Davidson diagonalization with overlap
     ethr =  1.00E-06,  avg # of iterations =  2.0

     total cpu time spent up to now is        2.9 secs

     total energy              =    -172.02311907 Ry
     estimated scf accuracy    <       0.00011577 Ry

     iteration #  2     ecut=    75.00 Ry     beta= 0.70
     Davidson diagonalization with overlap
     ethr =  4.82E-07,  avg # of iterations =  2.8

     total cpu time spent up to now is        3.0 secs

     total energy              =    -172.02333676 Ry
     estimated scf accuracy    <       0.00012738 Ry

     iteration #  3     ecut=    75.00 Ry     beta= 0.70
     Davidson diagonalization with overlap
     ethr =  4.82E-07,  avg # of iterations =  1.0

     total cpu time spent up to now is        3.1 secs

     total energy              =    -172.02332520 Ry
     estimated scf accuracy    <       0.00003243 Ry

     iteration #  4     ecut=    75.00 Ry     beta= 0.70
     Davidson diagonalization with overlap
     ethr =  1.35E-07,  avg # of iterations =  2.0

     total cpu time spent up to now is        3.3 secs

     total energy              =    -172.02332939 Ry
     estimated scf accuracy    <       0.00000060 Ry

     iteration #  5     ecut=    75.00 Ry     beta= 0.70
     Davidson diagonalization with overlap
     ethr =  2.50E-09,  avg # of iterations =  3.2

     total cpu time spent up to now is        3.4 secs

     total energy              =    -172.02332951 Ry
     estimated scf accuracy    <       0.00000008 Ry

     iteration #  6     ecut=    75.00 Ry     beta= 0.70
     Davidson diagonalization with overlap
     ethr =  3.39E-10,  avg # of iterations =  3.1

     total cpu time spent up to now is        3.6 secs

     End of self-consistent calculation

          k = 0.0000 0.0000 0.0000 ( 13371 PWs)   bands (ev):

    -9.1116  -4.9449  -4.9449  -4.9449  -4.7829  -4.0508  -4.0508  -4.0508
    -3.6678  -3.6678  -0.1920  -0.1920   3.3005   4.7027   4.7027   4.7027

          k =-0.1663 0.1663 0.1663 ( 13443 PWs)   bands (ev):

    -9.0059  -5.9025  -5.1297  -5.1297  -4.4379  -3.9140  -3.9140  -3.4712
    -3.4712  -3.3718  -0.4031  -0.4031   3.5573   4.4908   4.9560   4.9560

          k =-0.3327 0.3327 0.3327 ( 13413 PWs)   bands (ev):

    -8.7234  -6.8114  -5.3609  -5.3609  -4.4359  -3.8977  -3.8977  -2.8239
    -2.8239  -2.3260  -0.9663  -0.9663   3.8736   4.2625   4.7671   5.2018

          k = 0.4990-0.4990-0.4990 ( 13396 PWs)   bands (ev):

    -8.4993  -7.2506  -5.4473  -5.4473  -4.4469  -3.9099  -3.9099  -2.2779
    -2.2779  -1.8285  -1.4816  -1.4816   3.4253   4.2943   5.0697   5.0697

          k = 0.0000 0.0000 0.3327 ( 13439 PWs)   bands (ev):

    -8.9685  -5.9529  -5.3341  -5.3341  -4.1214  -4.0833  -3.5159  -3.4657
    -3.4657  -3.3503  -0.5974  -0.3208   3.6449   4.7412   4.7412   4.8367

          k =-0.1663 0.1663 0.4990 ( 13390 PWs)   bands (ev):

    -8.7337  -6.6760  -5.5789  -5.5377  -4.1256  -3.8863  -3.5524  -3.2821
    -2.7723  -2.4311  -1.1059  -0.6507   4.0782   4.1938   4.4424   4.8776

          k = 0.6653-0.6653-0.3327 ( 13378 PWs)   bands (ev):

    -8.4296  -7.2681  -5.7851  -5.5897  -4.1656  -3.6887  -3.6124  -2.8243
    -2.2749  -1.7275  -1.5504  -1.2156   3.4886   4.2763   4.5437   4.8829

          k = 0.4990-0.4990-0.1663 ( 13395 PWs)   bands (ev):

    -8.5230  -7.1134  -5.8212  -5.4713  -4.1852  -3.6682  -3.6145  -2.8445
    -2.7181  -1.7064  -1.4986  -1.0366   3.7105   4.4913   4.5170   4.6837

          k = 0.3327-0.3327 0.0000 ( 13419 PWs)   bands (ev):

    -8.8359  -6.4433  -5.6044  -5.2374  -4.2372  -3.8082  -3.6184  -3.3615
    -3.3114  -2.5437  -0.8762  -0.5592   3.9535   4.4502   4.5657   5.1405

          k = 0.0000 0.0000 0.6653 ( 13384 PWs)   bands (ev):

    -8.5474  -6.9869  -5.7389  -5.7389  -4.1380  -4.0903  -3.0690  -2.5891
    -2.5891  -2.3964  -1.4673  -0.7393   3.6361   3.6361   4.5666   5.3831

          k = 0.8317-0.8317-0.1663 ( 13390 PWs)   bands (ev):

    -8.2174  -7.4797  -5.9551  -5.7991  -4.1325  -3.8041  -2.9784  -2.6337
    -2.2701  -1.7948  -1.6872  -1.1141   3.2273   3.3485   4.9787   5.4544

          k = 0.6653-0.6653 0.0000 ( 13374 PWs)   bands (ev):

    -8.1977  -7.5080  -6.0800  -5.6912  -4.1328  -3.1689  -3.1478  -2.9667
    -2.7335  -1.7319  -1.3449  -1.2052   3.3780   3.6756   4.5507   5.1245

          k = 0.0000 0.0000-0.9980 ( 13424 PWs)   bands (ev):

    -7.8727  -7.8727  -5.8830  -5.8830  -4.1441  -4.1441  -2.3592  -2.3592
    -2.1451  -2.1451  -1.4596  -1.4596   2.9897   2.9897   5.5955   5.5955

          k = 0.9980-0.6653-0.3327 ( 13390 PWs)   bands (ev):

    -8.4520  -7.1608  -5.9152  -5.6748  -3.9317  -3.7603  -3.4273  -2.7808
    -2.7134  -1.6976  -1.6096  -0.9526   3.7141   3.7478   4.7294   4.8786

          k = 0.8317-0.4990-0.1663 ( 13378 PWs)   bands (ev):

    -8.1974  -7.5101  -6.0209  -5.7777  -3.8994  -3.5814  -3.0783  -3.0397
    -2.4677  -1.7280  -1.3740  -1.2390   3.3953   3.6215   4.7864   5.0210

          k =-0.0000 0.3327-0.9980 ( 13402 PWs)   bands (ev):

    -7.8643  -7.8643  -5.9602  -5.9602  -3.8052  -3.8052  -2.8960  -2.8960
    -2.0475  -2.0475  -1.3144  -1.3144   3.2144   3.2144   5.1615   5.1615

     the Fermi energy is     2.2589 ev

!    total energy              =    -172.02332954 Ry
     estimated scf accuracy    <          2.6E-09 Ry
     smearing contrib. (-TS)   =      -0.00000000 Ry
     internal energy E=F+TS    =    -172.02332954 Ry

     The total energy is F=E-TS. E is the sum of the following terms:
     one-electron contribution =      -5.94123722 Ry
     hartree contribution      =       9.80884009 Ry
     xc contribution           =     -19.01986269 Ry
     ewald contribution        =     -18.19116829 Ry
     one-center paw contrib.   =    -138.67990143 Ry

     convergence has been achieved in   6 iterations

     Forces acting on atoms (cartesian axes, Ry/au):

     atom    1 type  2   force =    -0.00000000    0.00000000    0.00000000
     atom    2 type  2   force =    -0.00000000    0.00000000    0.00000000
     atom    3 type  2   force =     0.00000000   -0.00000000   -0.00000000
     atom    4 type  2   force =     0.00000000    0.00000000   -0.00000000
     atom    5 type  1   force =    -0.00066851    0.00000000   -0.00000000
     atom    6 type  1   force =     0.00000000    0.00066851   -0.00000000
     atom    7 type  1   force =     0.00066851   -0.00000000    0.00000000
     atom    8 type  1   force =     0.00000000    0.00000000    0.00066851
     atom    9 type  1   force =    -0.00066851    0.00000000    0.00000000
     atom   10 type  1   force =     0.00000000   -0.00066851   -0.00000000
     atom   11 type  1   force =     0.00000000    0.00000000   -0.00066851
     atom   12 type  1   force =     0.00066851    0.00000000   -0.00000000
     atom   13 type  1   force =     0.00000000    0.00000000    0.00066851
     atom   14 type  1   force =    -0.00000000    0.00000000   -0.00066851
     atom   15 type  1   force =     0.00000000    0.00066851    0.00000000
     atom   16 type  1   force =     0.00000000   -0.00066851    0.00000000

     Total force =     0.002316     Total SCF correction =     0.000025


     Computing stress (Cartesian axis) and pressure

          total   stress  (Ry/bohr**3)                   (kbar)     P=        8.42
   0.00005722  -0.00000000  -0.00000000            8.42       -0.00       -0.00
  -0.00000000   0.00005722  -0.00000000           -0.00        8.42       -0.00
  -0.00000000  -0.00000000   0.00005722           -0.00       -0.00        8.42

     Energy error            =      5.0E-04 Ry
     Gradient error          =      6.7E-04 Ry/Bohr
     Cell gradient error     =      8.4E+00 kbar

     number of scf cycles    =   2
     number of bfgs steps    =   1

     enthalpy           old  =    -172.0228275154 Ry
     enthalpy           new  =    -172.0233295383 Ry

     CASE: enthalpy          _new < enthalpy          _old

     new trust radius        =       0.0153666716 bohr
     Message from routine volume:
     axis vectors are left-handed
     new conv_thr            =            1.0E-10 Ry

     new unit-cell volume =   1236.59913 a.u.^3 (   183.24509 Ang^3 )
     density =      1.08755 g/cm^3

CELL_PARAMETERS (alat= 16.96728396)
   0.502096644   0.502096644  -0.000000000
   0.502096644  -0.000000000   0.502096644
  -0.000000000   0.502096644   0.502096644

ATOMIC_POSITIONS (crystal)
Al            0.0000000000       -0.0000000000        0.0000000000
Al            0.0000000000        0.5000000000        0.0000000000
Al            0.0000000000        0.0000000000        0.5000000000
Al            0.5000000000       -0.0000000000       -0.0000000000
H             0.3219102587        0.3219102587        0.9280897413
H             0.6780897413        0.0719102587        0.6780897413
H             0.9280897413        0.9280897413        0.3219102587
H             0.3219102587        0.9280897413        0.9280897413
H             0.0719102587        0.0719102587        0.6780897413
H             0.3219102587        0.9280897413        0.3219102587
H             0.6780897413        0.0719102587        0.0719102587
H             0.6780897413        0.6780897413        0.0719102587
H             0.0719102587        0.6780897413        0.6780897413
H             0.9280897413        0.3219102587        0.3219102587
H             0.9280897413        0.3219102587        0.9280897413
H             0.0719102587        0.6780897413        0.0719102587



     Writing config-only to output data dir temp/alh3.save/
     NEW-OLD atomic charge density approx. for the potential
     extrapolated charge   24.15708, renormalised to   24.00000

     total cpu time spent up to now is        4.2 secs

     Self-consistent Calculation

     iteration #  1     ecut=    75.00 Ry     beta= 0.70
     Davidson diagonalization with overlap
     ethr =  1.00E-06,  avg # of iterations =  2.1

     total cpu time spent up to now is        4.3 secs

     total energy              =    -172.02346290 Ry
     estimated scf accuracy    <       0.00012741 Ry

     iteration #  2     ecut=    75.00 Ry     beta= 0.70
     Davidson diagonalization with overlap
     ethr =  5.31E-07,  avg # of iterations =  3.0

     total cpu time spent up to now is        4.5 secs

     total energy              =    -172.02371933 Ry
     estimated scf accuracy    <       0.00015418 Ry

     iteration #  3     ecut=    75.00 Ry     beta= 0.70
     Davidson diagonalization with overlap
     ethr =  5.31E-07,  avg # of iterations =  1.0

     total cpu time spent up to now is        4.6 secs

     total energy              =    -172.02370405 Ry
     estimated scf accuracy    <       0.00004101 Ry

     iteration #  4     ecut=    75.00 Ry     beta= 0.70
     Davidson diagonalization with overlap
     ethr =  1.71E-07,  avg # of iterations =  2.0

     total cpu time spent up to now is        4.7 secs

     total energy              =    -172.02370964 Ry
     estimated scf accuracy    <       0.00000061 Ry

     iteration #  5     ecut=    75.00 Ry     beta= 0.70
     Davidson diagonalization with overlap
     ethr =  2.55E-09,  avg # of iterations =  3.7

     total cpu time spent up to now is        4.8 secs

     total energy              =    -172.02370975 Ry
     estimated scf accuracy    <       0.00000013 Ry

     iteration #  6     ecut=    75.00 Ry     beta= 0.70
     Davidson diagonalization with overlap
     ethr =  5.60E-10,  avg # of iterations =  2.2

     total cpu time spent up to now is        5.0 secs

     total energy              =    -172.02370979 Ry
     estimated scf accuracy    <          2.3E-09 Ry

     iteration #  7     ecut=    75.00 Ry     beta= 0.70
     Davidson diagonalization with overlap
     ethr =  9.57E-12,  avg # of iterations =  4.4

     total cpu time spent up to now is        5.1 secs

     total energy              =    -172.02370979 Ry
     estimated scf accuracy    <          6.1E-10 Ry

     iteration #  8     ecut=    75.00 Ry     beta= 0.70
     Davidson diagonalization with overlap
     ethr =  2.54E-12,  avg # of iterations =  2.1

     total cpu time spent up to now is        5.3 secs

     End of self-consistent calculation

          k = 0.0000 0.0000 0.0000 ( 13371 PWs)   bands (ev):

    -9.1111  -4.9675  -4.9675  -4.9675  -4.7966  -4.0677  -4.0677  -4.0677
    -3.6877  -3.6877  -0.2268  -0.2268   3.2767   4.6668   4.6668   4.6668

          k =-0.1660 0.1660 0.1660 ( 13443 PWs)   bands (ev):

    -9.0059  -5.9169  -5.1502  -5.1502  -4.4534  -3.9321  -3.9321  -3.4923
    -3.4923  -3.3947  -0.4371  -0.4371   3.5320   4.4526   4.9145   4.9145

          k =-0.3319 0.3319 0.3319 ( 13413 PWs)   bands (ev):

    -8.7250  -6.8213  -5.3797  -5.3797  -4.4506  -3.9156  -3.9156  -2.8481
    -2.8481  -2.3532  -0.9981  -0.9981   3.8239   4.2275   4.7330   5.1284

          k = 0.4979-0.4979-0.4979 ( 13396 PWs)   bands (ev):

    -8.5022  -7.2583  -5.4655  -5.4655  -4.4614  -3.9276  -3.9276  -2.3042
    -2.3042  -1.8572  -1.5116  -1.5116   3.3669   4.2670   4.9950   4.9950

          k = 0.0000 0.0000 0.3319 ( 13439 PWs)   bands (ev):

    -8.9688  -5.9674  -5.3524  -5.3524  -4.1398  -4.0998  -3.5364  -3.4876
    -3.4876  -3.3724  -0.6306  -0.3551   3.6191   4.6906   4.6906   4.8004

          k =-0.1660 0.1660 0.4979 ( 13390 PWs)   bands (ev):

    -8.7352  -6.6870  -5.5952  -5.5546  -4.1426  -3.9042  -3.5727  -3.3044
    -2.7973  -2.4578  -1.1370  -0.6837   4.0223   4.1598   4.3742   4.8380

          k = 0.6639-0.6639-0.3319 ( 13378 PWs)   bands (ev):

    -8.4328  -7.2762  -5.7998  -5.6065  -4.1820  -3.7080  -3.6321  -2.8481
    -2.3013  -1.7567  -1.5801  -1.2468   3.4283   4.2075   4.5127   4.8244

          k = 0.4979-0.4979-0.1660 ( 13395 PWs)   bands (ev):

    -8.5256  -7.1223  -5.8355  -5.4892  -4.2015  -3.6874  -3.6345  -2.8683
    -2.7428  -1.7359  -1.5284  -1.0682   3.6505   4.4474   4.4506   4.6371

          k = 0.3319-0.3319 0.0000 ( 13419 PWs)   bands (ev):

    -8.8368  -6.4554  -5.6202  -5.2572  -4.2536  -3.8265  -3.6385  -3.3830
    -3.3342  -2.5700  -0.9083  -0.5926   3.9258   4.4090   4.5029   5.0682

          k = 0.0000 0.0000 0.6639 ( 13384 PWs)   bands (ev):

    -8.5498  -6.9968  -5.7543  -5.7543  -4.1537  -4.1070  -3.0915  -2.6152
    -2.6152  -2.4225  -1.4967  -0.7718   3.5705   3.5705   4.5353   5.3436

          k = 0.8299-0.8299-0.1660 ( 13390 PWs)   bands (ev):

    -8.2215  -7.4873  -5.9686  -5.8142  -4.1485  -3.8222  -3.0014  -2.6589
    -2.2965  -1.8234  -1.7163  -1.1455   3.1642   3.2838   4.9375   5.4155

          k = 0.6639-0.6639 0.0000 ( 13374 PWs)   bands (ev):

    -8.2021  -7.5154  -6.0924  -5.7072  -4.1489  -3.1907  -3.1697  -2.9898
    -2.7576  -1.7611  -1.3754  -1.2366   3.3157   3.6097   4.4919   5.0928

          k = 0.0000 0.0000-0.9958 ( 13424 PWs)   bands (ev):

    -7.8784  -7.8784  -5.8975  -5.8975  -4.1598  -4.1598  -2.3847  -2.3847
    -2.1729  -2.1729  -1.4892  -1.4892   2.9263   2.9263   5.5531   5.5531

          k = 0.9958-0.6639-0.3319 ( 13390 PWs)   bands (ev):

    -8.4549  -7.1699  -5.9288  -5.6907  -3.9495  -3.7788  -3.4482  -2.8049
    -2.7383  -1.7271  -1.6389  -0.9846   3.6495   3.6832   4.6966   4.8334

          k = 0.8299-0.4979-0.1660 ( 13378 PWs)   bands (ev):

    -8.2017  -7.5175  -6.0338  -5.7928  -3.9172  -3.6011  -3.1008  -3.0622
    -2.4931  -1.7568  -1.4048  -1.2703   3.3327   3.5562   4.7258   4.9889

          k = 0.0000 0.3319-0.9958 ( 13402 PWs)   bands (ev):

    -7.8701  -7.8701  -5.9737  -5.9737  -3.8233  -3.8233  -2.9194  -2.9194
    -2.0747  -2.0747  -1.3454  -1.3454   3.1508   3.1508   5.1109   5.1109

     the Fermi energy is     2.2272 ev

!    total energy              =    -172.02370979 Ry
     estimated scf accuracy    <          3.7E-11 Ry
     smearing contrib. (-TS)   =      -0.00000000 Ry
     internal energy E=F+TS    =    -172.02370979 Ry

     The total energy is F=E-TS. E is the sum of the following terms:
     one-electron contribution =      -6.01998736 Ry
     hartree contribution      =       9.81466058 Ry
     xc contribution           =     -18.99677268 Ry
     ewald contribution        =     -18.14455759 Ry
     one-center paw contrib.   =    -138.67705274 Ry

     convergence has been achieved in   8 iterations

     Forces acting on atoms (cartesian axes, Ry/au):

     atom    1 type  2   force =     0.00000000   -0.00000000    0.00000000
     atom    2 type  2   force =     0.00000000   -0.00000000    0.00000000
     atom    3 type  2   force =     0.00000000    0.00000000   -0.00000000
     atom    4 type  2   force =     0.00000000    0.00000000   -0.00000000
     atom    5 type  1   force =    -0.00130158   -0.00000000    0.00000000
     atom    6 type  1   force =    -0.00000000    0.00130158    0.00000000
     atom    7 type  1   force =     0.00130158    0.00000000   -0.00000000
     atom    8 type  1   force =     0.00000000   -0.00000000    0.00130158
     atom    9 type  1   force =    -0.00130158    0.00000000    0.00000000
     atom   10 type  1   force =     0.00000000   -0.00130158    0.00000000
     atom   11 type  1   force =     0.00000000   -0.00000000   -0.00130158
     atom   12 type  1   force =     0.00130158   -0.00000000    0.00000000
     atom   13 type  1   force =    -0.00000000    0.00000000    0.00130158
     atom   14 type  1   force =    -0.00000000    0.00000000   -0.00130158
     atom   15 type  1   force =    -0.00000000    0.00130158    0.00000000
     atom   16 type  1   force =     0.00000000   -0.00130158   -0.00000000

     Total force =     0.004509     Total SCF correction =     0.000003


     Computing stress (Cartesian axis) and pressure

          total   stress  (Ry/bohr**3)                   (kbar)     P=        5.00
   0.00003396   0.00000000   0.00000000            5.00        0.00        0.00
   0.00000000   0.00003396   0.00000000            0.00        5.00        0.00
   0.00000000   0.00000000   0.00003396            0.00        0.00        5.00

     Energy error            =      3.8E-04 Ry
     Gradient error          =      1.3E-03 Ry/Bohr
     Cell gradient error     =      5.0E+00 kbar

     number of scf cycles    =   3
     number of bfgs steps    =   2

     enthalpy           old  =    -172.0233295383 Ry
     enthalpy           new  =    -172.0237097938 Ry

     CASE: enthalpy          _new < enthalpy          _old

     new trust radius        =       0.0230752576 bohr
     Message from routine volume:
     axis vectors are left-handed
     new conv_thr            =       0.0000000001 Ry

     new unit-cell volume =   1248.81084 a.u.^3 (   185.05467 Ang^3 )
     density =      1.07691 g/cm^3

CELL_PARAMETERS (alat= 16.96728396)
   0.503744008   0.503744008  -0.000000000
   0.503744008  -0.000000000   0.503744008
  -0.000000000   0.503744008   0.503744008

ATOMIC_POSITIONS (crystal)
Al           -0.0000000000        0.0000000000        0.0000000000
Al            0.0000000000        0.5000000000        0.0000000000
Al            0.0000000000        0.0000000000        0.5000000000
Al            0.5000000000       -0.0000000000       -0.0000000000
H             0.3217066720        0.3217066720        0.9282933280
H             0.6782933280        0.0717066720        0.6782933280
H             0.9282933280        0.9282933280        0.3217066720
H             0.3217066720        0.9282933280        0.9282933280
H             0.0717066720        0.0717066720        0.6782933280
H             0.3217066720        0.9282933280        0.3217066720
H             0.6782933280        0.0717066720        0.0717066720
H             0.6782933280        0.6782933280        0.0717066720
H             0.0717066720        0.6782933280        0.6782933280
H             0.9282933280        0.3217066720        0.3217066720
H             0.9282933280        0.3217066720        0.9282933280
H             0.0717066720        0.6782933280        0.0717066720



     Writing config-only to output data dir temp/alh3.save/
     NEW-OLD atomic charge density approx. for the potential
     extrapolated charge   24.23460, renormalised to   24.00000

     total cpu time spent up to now is        5.9 secs

     Self-consistent Calculation

     iteration #  1     ecut=    75.00 Ry     beta= 0.70
     Davidson diagonalization with overlap
     ethr =  1.00E-06,  avg # of iterations =  3.1

     total cpu time spent up to now is        6.0 secs

     total energy              =    -172.02346017 Ry
     estimated scf accuracy    <       0.00025455 Ry

     iteration #  2     ecut=    75.00 Ry     beta= 0.70
     Davidson diagonalization with overlap
     ethr =  1.06E-06,  avg # of iterations =  6.0

     total cpu time spent up to now is        6.2 secs

     total energy              =    -172.02402241 Ry
     estimated scf accuracy    <       0.00035594 Ry

     iteration #  3     ecut=    75.00 Ry     beta= 0.70
     Davidson diagonalization with overlap
     ethr =  1.06E-06,  avg # of iterations =  1.0

     total cpu time spent up to now is        6.3 secs

     total energy              =    -172.02398536 Ry
     estimated scf accuracy    <       0.00009791 Ry

     iteration #  4     ecut=    75.00 Ry     beta= 0.70
     Davidson diagonalization with overlap
     ethr =  4.08E-07,  avg # of iterations =  2.0

     total cpu time spent up to now is        6.5 secs

     total energy              =    -172.02399856 Ry
     estimated scf accuracy    <       0.00000142 Ry

     iteration #  5     ecut=    75.00 Ry     beta= 0.70
     Davidson diagonalization with overlap
     ethr =  5.93E-09,  avg # of iterations =  3.4

     total cpu time spent up to now is        6.6 secs

     total energy              =    -172.02399887 Ry
     estimated scf accuracy    <       0.00000025 Ry

     iteration #  6     ecut=    75.00 Ry     beta= 0.70
     Davidson diagonalization with overlap
     ethr =  1.04E-09,  avg # of iterations =  2.7

     total cpu time spent up to now is        6.7 secs

     total energy              =    -172.02399895 Ry
     estimated scf accuracy    <          8.4E-09 Ry

     iteration #  7     ecut=    75.00 Ry     beta= 0.70
     Davidson diagonalization with overlap
     ethr =  3.49E-11,  avg # of iterations =  3.9

     total cpu time spent up to now is        6.9 secs

     total energy              =    -172.02399895 Ry
     estimated scf accuracy    <          3.3E-10 Ry

     iteration #  8     ecut=    75.00 Ry     beta= 0.70
     Davidson diagonalization with overlap
     ethr =  1.39E-12,  avg # of iterations =  3.1

     total cpu time spent up to now is        7.0 secs

     End of self-consistent calculation

          k = 0.0000 0.0000 0.0000 ( 13371 PWs)   bands (ev):

    -9.1125  -5.0025  -5.0025  -5.0025  -4.8228  -4.0937  -4.0937  -4.0937
    -3.7162  -3.7162  -0.2794  -0.2794   3.2436   4.6162   4.6162   4.6162

          k =-0.1654 0.1654 0.1654 ( 13443 PWs)   bands (ev):

    -9.0082  -5.9410  -5.1819  -5.1819  -4.4799  -3.9597  -3.9597  -3.5231
    -3.5231  -3.4310  -0.4883  -0.4883   3.4968   4.3983   4.8551   4.8551

          k =-0.3309 0.3309 0.3309 ( 13413 PWs)   bands (ev):

    -8.7296  -6.8384  -5.4087  -5.4087  -4.4756  -3.9423  -3.9423  -2.8845
    -2.8845  -2.3968  -1.0459  -1.0459   3.7494   4.1779   4.6843   5.0204

          k = 0.4963-0.4963-0.4963 ( 13396 PWs)   bands (ev):

    -8.5088  -7.2717  -5.4937  -5.4937  -4.4859  -3.9538  -3.9538  -2.3445
    -2.3445  -1.9035  -1.5561  -1.5561   3.2799   4.2277   4.8844   4.8844

          k = 0.0000 0.0000 0.3309 ( 13439 PWs)   bands (ev):

    -8.9713  -5.9920  -5.3806  -5.3806  -4.1698  -4.1252  -3.5660  -3.5216
    -3.5216  -3.4057  -0.6803  -0.4071   3.5832   4.6163   4.6163   4.7491

          k =-0.1654 0.1654 0.4963 ( 13390 PWs)   bands (ev):

    -8.7396  -6.7062  -5.6203  -5.5807  -4.1697  -3.9323  -3.6028  -3.3377
    -2.8354  -2.5000  -1.1834  -0.7339   3.9367   4.1144   4.2736   4.7807

          k = 0.6617-0.6617-0.3309 ( 13378 PWs)   bands (ev):

    -8.4398  -7.2904  -5.8226  -5.6324  -4.2083  -3.7379  -3.6614  -2.8843
    -2.3416  -1.8026  -1.6244  -1.2942   3.3386   4.1056   4.4670   4.7362

          k = 0.4963-0.4963-0.1654 ( 13395 PWs)   bands (ev):

    -8.5319  -7.1378  -5.8576  -5.5167  -4.2280  -3.7162  -3.6648  -2.9036
    -2.7814  -1.7825  -1.5728  -1.1161   3.5612   4.3443   4.3869   4.5716

          k = 0.3309-0.3309 0.0000 ( 13419 PWs)   bands (ev):

    -8.8404  -6.4761  -5.6445  -5.2877  -4.2806  -3.8546  -3.6682  -3.4141
    -3.3699  -2.6112  -0.9563  -0.6431   3.8873   4.3494   4.4099   4.9622

          k = 0.0000 0.0000 0.6617 ( 13384 PWs)   bands (ev):

    -8.5557  -7.0144  -5.7781  -5.7781  -4.1780  -4.1330  -3.1241  -2.6564
    -2.6564  -2.4631  -1.5404  -0.8215   3.4737   3.4737   4.4918   5.2873

          k = 0.8271-0.8271-0.1654 ( 13390 PWs)   bands (ev):

    -8.2300  -7.5012  -5.9894  -5.8375  -4.1732  -3.8503  -3.0356  -2.6981
    -2.3367  -1.8666  -1.7619  -1.1937   3.0708   3.1884   4.8775   5.3583

          k = 0.6617-0.6617 0.0000 ( 13374 PWs)   bands (ev):

    -8.2109  -7.5289  -6.1112  -5.7319  -4.1741  -3.2249  -3.2034  -3.0257
    -2.7929  -1.8051  -1.4219  -1.2859   3.2231   3.5123   4.4045   5.0466

          k = 0.0000 0.0000-0.9926 ( 13424 PWs)   bands (ev):

    -7.8895  -7.8895  -5.9199  -5.9199  -4.1840  -4.1840  -2.4222  -2.4222
    -2.2169  -2.2169  -1.5349  -1.5349   2.8330   2.8330   5.4933   5.4933

          k = 0.9926-0.6617-0.3309 ( 13390 PWs)   bands (ev):

    -8.4616  -7.1859  -5.9498  -5.7150  -3.9781  -3.8072  -3.4789  -2.8411
    -2.7778  -1.7736  -1.6822  -1.0333   3.5536   3.5875   4.6506   4.7664

          k = 0.8271-0.4963-0.1654 ( 13378 PWs)   bands (ev):

    -8.2106  -7.5309  -6.0535  -5.8159  -3.9456  -3.6310  -3.1354  -3.0968
    -2.5309  -1.8004  -1.4519  -1.3191   3.2397   3.4598   4.6359   4.9423

          k = 0.0000 0.3309-0.9926 ( 13402 PWs)   bands (ev):

    -7.8814  -7.8814  -5.9945  -5.9945  -3.8515  -3.8515  -2.9548  -2.9548
    -2.1161  -2.1161  -1.3935  -1.3935   3.0569   3.0569   5.0366   5.0366

     the Fermi energy is     2.1820 ev

!    total energy              =    -172.02399895 Ry
     estimated scf accuracy    <          9.9E-12 Ry
     smearing contrib. (-TS)   =      -0.00000000 Ry
     internal energy E=F+TS    =    -172.02399895 Ry

     The total energy is F=E-TS. E is the sum of the following terms:
     one-electron contribution =      -6.16046878 Ry
     hartree contribution      =       9.83521886 Ry
     xc contribution           =     -18.96444007 Ry
     ewald contribution        =     -18.06122838 Ry
     one-center paw contrib.   =    -138.67308058 Ry

     convergence has been achieved in   8 iterations

     Forces acting on atoms (cartesian axes, Ry/au):

     atom    1 type  2   force =     0.00000000   -0.00000000   -0.00000000
     atom    2 type  2   force =     0.00000000    0.00000000   -0.00000000
     atom    3 type  2   force =     0.00000000   -0.00000000   -0.00000000
     atom    4 type  2   force =     0.00000000    0.00000000    0.00000000
     atom    5 type  1   force =    -0.00204952    0.00000000   -0.00000000
     atom    6 type  1   force =     0.00000000    0.00204952    0.00000000
     atom    7 type  1   force =     0.00204952   -0.00000000    0.00000000
     atom    8 type  1   force =     0.00000000    0.00000000    0.00204952
     atom    9 type  1   force =    -0.00204952    0.00000000   -0.00000000
     atom   10 type  1   force =     0.00000000   -0.00204952    0.00000000
     atom   11 type  1   force =     0.00000000    0.00000000   -0.00204952
     atom   12 type  1   force =     0.00204952    0.00000000    0.00000000
     atom   13 type  1   force =     0.00000000   -0.00000000    0.00204952
     atom   14 type  1   force =     0.00000000   -0.00000000   -0.00204952
     atom   15 type  1   force =     0.00000000    0.00204952    0.00000000
     atom   16 type  1   force =     0.00000000   -0.00204952   -0.00000000

     Total force =     0.007100     Total SCF correction =     0.000001


     Computing stress (Cartesian axis) and pressure

          total   stress  (Ry/bohr**3)                   (kbar)     P=        0.32
   0.00000219  -0.00000000  -0.00000000            0.32       -0.00       -0.00
  -0.00000000   0.00000219  -0.00000000           -0.00        0.32       -0.00
  -0.00000000  -0.00000000   0.00000219           -0.00       -0.00        0.32

     Energy error            =      2.9E-04 Ry
     Gradient error          =      2.0E-03 Ry/Bohr
     Cell gradient error     =      3.2E-01 kbar

     number of scf cycles    =   4
     number of bfgs steps    =   3

     enthalpy           old  =    -172.0237097938 Ry
     enthalpy           new  =    -172.0239989550 Ry

     CASE: enthalpy          _new < enthalpy          _old

     new trust radius        =       0.0086596059 bohr
     Message from routine volume:
     axis vectors are left-handed
     new conv_thr            =       0.0000000002 Ry

     new unit-cell volume =   1253.40673 a.u.^3 (   185.73571 Ang^3 )
     density =      1.07297 g/cm^3

CELL_PARAMETERS (alat= 16.96728396)
   0.504361213   0.504361213  -0.000000000
   0.504361213  -0.000000000   0.504361213
  -0.000000000   0.504361213   0.504361213

ATOMIC_POSITIONS (crystal)
Al            0.0000000000        0.0000000000       -0.0000000000
Al            0.0000000000        0.5000000000        0.0000000000
Al            0.0000000000        0.0000000000        0.5000000000
Al            0.5000000000       -0.0000000000       -0.0000000000
H             0.3214968726        0.3214968726        0.9285031274
H             0.6785031274        0.0714968726        0.6785031274
H             0.9285031274        0.9285031274        0.3214968726
H             0.3214968726        0.9285031274        0.9285031274
H             0.0714968726        0.0714968726        0.6785031274
H             0.3214968726        0.9285031274        0.3214968726
H             0.6785031274        0.0714968726        0.0714968726
H             0.6785031274        0.6785031274        0.0714968726
H             0.0714968726        0.6785031274        0.6785031274
H             0.9285031274        0.3214968726        0.3214968726
H             0.9285031274        0.3214968726        0.9285031274
H             0.0714968726        0.6785031274        0.0714968726



     Writing config-only to output data dir temp/alh3.save/
     NEW-OLD atomic charge density approx. for the potential
     extrapolated charge   24.08797, renormalised to   24.00000

     total cpu time spent up to now is        7.6 secs

     Self-consistent Calculation

     iteration #  1     ecut=    75.00 Ry     beta= 0.70
     Davidson diagonalization with overlap
     ethr =  1.00E-06,  avg # of iterations =  2.0

     total cpu time spent up to now is        7.7 secs

     total energy              =    -172.02400920 Ry
     estimated scf accuracy    <       0.00002551 Ry

     iteration #  2     ecut=    75.00 Ry     beta= 0.70
     Davidson diagonalization with overlap
     ethr =  1.06E-07,  avg # of iterations =  3.0

     total cpu time spent up to now is        7.9 secs

     total energy              =    -172.02408208 Ry
     estimated scf accuracy    <       0.00004934 Ry

     iteration #  3     ecut=    75.00 Ry     beta= 0.70
     Davidson diagonalization with overlap
     ethr =  1.06E-07,  avg # of iterations =  1.0

     total cpu time spent up to now is        8.0 secs

     total energy              =    -172.02407388 Ry
     estimated scf accuracy    <       0.00001704 Ry

     iteration #  4     ecut=    75.00 Ry     beta= 0.70
     Davidson diagonalization with overlap
     ethr =  7.10E-08,  avg # of iterations =  2.0

     total cpu time spent up to now is        8.1 secs

     total energy              =    -172.02407727 Ry
     estimated scf accuracy    <       0.00000026 Ry

     iteration #  5     ecut=    75.00 Ry     beta= 0.70
     Davidson diagonalization with overlap
     ethr =  1.07E-09,  avg # of iterations =  3.0

     total cpu time spent up to now is        8.3 secs

     total energy              =    -172.02407731 Ry
     estimated scf accuracy    <       0.00000018 Ry

     iteration #  6     ecut=    75.00 Ry     beta= 0.70
     Davidson diagonalization with overlap
     ethr =  7.36E-10,  avg # of iterations =  2.0

     total cpu time spent up to now is        8.4 secs

     total energy              =    -172.02407735 Ry
     estimated scf accuracy    <          2.6E-09 Ry

     iteration #  7     ecut=    75.00 Ry     beta= 0.70
     Davidson diagonalization with overlap
     ethr =  1.10E-11,  avg # of iterations =  3.8

     total cpu time spent up to now is        8.5 secs

     total energy              =    -172.02407735 Ry
     estimated scf accuracy    <          2.8E-10 Ry

     iteration #  8     ecut=    75.00 Ry     beta= 0.70
     Davidson diagonalization with overlap
     ethr =  1.16E-12,  avg # of iterations =  2.0

     total cpu time spent up to now is        8.7 secs

     End of self-consistent calculation

          k = 0.0000 0.0000 0.0000 ( 13371 PWs)   bands (ev):

    -9.1155  -5.0173  -5.0173  -5.0173  -4.8394  -4.1046  -4.1046  -4.1046
    -3.7257  -3.7257  -0.2999  -0.2999   3.2340   4.6011   4.6011   4.6011

          k =-0.1652 0.1652 0.1652 ( 13443 PWs)   bands (ev):

    -9.0115  -5.9530  -5.1952  -5.1952  -4.4939  -3.9707  -3.9707  -3.5342
    -3.5342  -3.4472  -0.5082  -0.5082   3.4865   4.3814   4.8366   4.8366

          k =-0.3305 0.3305 0.3305 ( 13413 PWs)   bands (ev):

    -8.7340  -6.8475  -5.4208  -5.4208  -4.4885  -3.9523  -3.9523  -2.8987
    -2.8987  -2.4168  -1.0642  -1.0642   3.7224   4.1613   4.6681   4.9815

          k = 0.4957-0.4957-0.4957 ( 13396 PWs)   bands (ev):

    -8.5141  -7.2792  -5.5054  -5.5054  -4.4986  -3.9635  -3.9635  -2.3607
    -2.3607  -1.9249  -1.5727  -1.5727   3.2472   4.2145   4.8435   4.8435

          k = 0.0000 0.0000 0.3305 ( 13439 PWs)   bands (ev):

    -8.9748  -6.0047  -5.3924  -5.3924  -4.1842  -4.1357  -3.5759  -3.5361
    -3.5361  -3.4186  -0.6994  -0.4276   3.5727   4.5914   4.5914   4.7334

          k =-0.1652 0.1652 0.4957 ( 13390 PWs)   bands (ev):

    -8.7439  -6.7164  -5.6309  -5.5916  -4.1821  -3.9445  -3.6139  -3.3505
    -2.8510  -2.5186  -1.2009  -0.7537   3.9052   4.1007   4.2370   4.7614

          k = 0.6609-0.6609-0.3305 ( 13378 PWs)   bands (ev):

    -8.4453  -7.2985  -5.8321  -5.6432  -4.2204  -3.7505  -3.6724  -2.8988
    -2.3578  -1.8227  -1.6410  -1.3130   3.3051   4.0681   4.4511   4.7038

          k = 0.4957-0.4957-0.1652 ( 13395 PWs)   bands (ev):

    -8.5370  -7.1465  -5.8668  -5.5282  -4.2404  -3.7275  -3.6770  -2.9167
    -2.7982  -1.8029  -1.5892  -1.1349   3.5279   4.3064   4.3630   4.5499

          k = 0.3305-0.3305 0.0000 ( 13419 PWs)   bands (ev):

    -8.8444  -6.4869  -5.6546  -5.3005  -4.2940  -3.8663  -3.6793  -3.4248
    -3.3853  -2.6290  -0.9747  -0.6630   3.8758   4.3299   4.3763   4.9242

          k = 0.0000 0.0000 0.6609 ( 13384 PWs)   bands (ev):

    -8.5605  -7.0242  -5.7880  -5.7880  -4.1880  -4.1440  -3.1354  -2.6745
    -2.6745  -2.4803  -1.5566  -0.8416   3.4383   3.4383   4.4789   5.2691

          k = 0.8261-0.8261-0.1652 ( 13390 PWs)   bands (ev):

    -8.2360  -7.5094  -5.9979  -5.8472  -4.1835  -3.8622  -3.0485  -2.7150
    -2.3528  -1.8834  -1.7814  -1.2136   3.0366   3.1536   4.8572   5.3391

          k = 0.6609-0.6609 0.0000 ( 13374 PWs)   bands (ev):

    -8.2171  -7.5369  -6.1189  -5.7421  -4.1850  -3.2400  -3.2171  -3.0409
    -2.8054  -1.8221  -1.4406  -1.3074   3.1888   3.4767   4.3722   5.0306

          k = 0.0000 0.0000-0.9914 ( 13424 PWs)   bands (ev):

    -7.8965  -7.8965  -5.9292  -5.9292  -4.1940  -4.1940  -2.4357  -2.4357
    -2.2366  -2.2366  -1.5540  -1.5540   2.7991   2.7991   5.4749   5.4749

          k = 0.9914-0.6609-0.3305 ( 13390 PWs)   bands (ev):

    -8.4669  -7.1950  -5.9584  -5.7251  -3.9912  -3.8190  -3.4902  -2.8549
    -2.7952  -1.7938  -1.6983  -1.0528   3.5181   3.5525   4.6364   4.7430

          k = 0.8261-0.4957-0.1652 ( 13378 PWs)   bands (ev):

    -8.2168  -7.5389  -6.0615  -5.8254  -3.9583  -3.6429  -3.1498  -3.1109
    -2.5452  -1.8177  -1.4709  -1.3400   3.2053   3.4245   4.6027   4.9262

          k = 0.0000 0.3305-0.9914 ( 13402 PWs)   bands (ev):

    -7.8885  -7.8885  -6.0030  -6.0030  -3.8635  -3.8635  -2.9689  -2.9689
    -2.1324  -2.1324  -1.4139  -1.4139   3.0226   3.0226   5.0103   5.0103

     the Fermi energy is     2.1674 ev

!    total energy              =    -172.02407735 Ry
     estimated scf accuracy    <          1.4E-11 Ry
     smearing contrib. (-TS)   =      -0.00000000 Ry
     internal energy E=F+TS    =    -172.02407735 Ry

     The total energy is F=E-TS. E is the sum of the following terms:
     one-electron contribution =      -6.23952357 Ry
     hartree contribution      =       9.85650496 Ry
     xc contribution           =     -18.95475936 Ry
     ewald contribution        =     -18.01441716 Ry
     one-center paw contrib.   =    -138.67188223 Ry

     convergence has been achieved in   8 iterations

     Forces acting on atoms (cartesian axes, Ry/au):

     atom    1 type  2   force =    -0.00000000    0.00000000   -0.00000000
     atom    2 type  2   force =     0.00000000    0.00000000   -0.00000000
     atom    3 type  2   force =    -0.00000000   -0.00000000    0.00000000
     atom    4 type  2   force =     0.00000000    0.00000000   -0.00000000
     atom    5 type  1   force =    -0.00211370    0.00000000   -0.00000000
     atom    6 type  1   force =     0.00000000    0.00211370   -0.00000000
     atom    7 type  1   force =     0.00211370    0.00000000    0.00000000
     atom    8 type  1   force =     0.00000000   -0.00000000    0.00211370
     atom    9 type  1   force =    -0.00211370    0.00000000    0.00000000
     atom   10 type  1   force =    -0.00000000   -0.00211370    0.00000000
     atom   11 type  1   force =     0.00000000    0.00000000   -0.00211370
     atom   12 type  1   force =     0.00211370   -0.00000000    0.00000000
     atom   13 type  1   force =    -0.00000000    0.00000000    0.00211370
     atom   14 type  1   force =    -0.00000000    0.00000000   -0.00211370
     atom   15 type  1   force =     0.00000000    0.00211370   -0.00000000
     atom   16 type  1   force =     0.00000000   -0.00211370    0.00000000

     Total force =     0.007322     Total SCF correction =     0.000002


     Computing stress (Cartesian axis) and pressure

          total   stress  (Ry/bohr**3)                   (kbar)     P=       -1.04
  -0.00000705  -0.00000000  -0.00000000           -1.04       -0.00       -0.00
   0.00000000  -0.00000705   0.00000000            0.00       -1.04        0.00
  -0.00000000   0.00000000  -0.00000705           -0.00        0.00       -1.04

     Energy error            =      7.8E-05 Ry
     Gradient error          =      2.1E-03 Ry/Bohr
     Cell gradient error     =      1.0E+00 kbar

     number of scf cycles    =   5
     number of bfgs steps    =   4

     enthalpy           old  =    -172.0239989550 Ry
     enthalpy           new  =    -172.0240773525 Ry

     CASE: enthalpy          _new < enthalpy          _old

     new trust radius        =       0.0095314003 bohr
     Message from routine volume:
     axis vectors are left-handed
     new conv_thr            =            1.0E-10 Ry

     new unit-cell volume =   1258.47522 a.u.^3 (   186.48679 Ang^3 )
     density =      1.06864 g/cm^3

CELL_PARAMETERS (alat= 16.96728396)
   0.505040139   0.505040139  -0.000000000
   0.505040139  -0.000000000   0.505040139
  -0.000000000   0.505040139   0.505040139

ATOMIC_POSITIONS (crystal)
Al            0.0000000000       -0.0000000000       -0.0000000000
Al            0.0000000000        0.5000000000        0.0000000000
Al            0.0000000000        0.0000000000        0.5000000000
Al            0.5000000000       -0.0000000000       -0.0000000000
H             0.3210872619        0.3210872619        0.9289127381
H             0.6789127381        0.0710872619        0.6789127381
H             0.9289127381        0.9289127381        0.3210872619
H             0.3210872619        0.9289127381        0.9289127381
H             0.0710872619        0.0710872619        0.6789127381
H             0.3210872619        0.9289127381        0.3210872619
H             0.6789127381        0.0710872619        0.0710872619
H             0.6789127381        0.6789127381        0.0710872619
H             0.0710872619        0.6789127381        0.6789127381
H             0.9289127381        0.3210872619        0.3210872619
H             0.9289127381        0.3210872619        0.9289127381
H             0.0710872619        0.6789127381        0.0710872619



     Writing config-only to output data dir temp/alh3.save/
     NEW-OLD atomic charge density approx. for the potential
