
     Program PWSCF v.6.7MaX starts on 11Nov2023 at 13:43:30 

     This program is part of the open-source Quantum ESPRESSO suite
     for quantum simulation of materials; please cite
         "P. Giannozzi et al., J. Phys.:Condens. Matter 21 395502 (2009);
         "P. Giannozzi et al., J. Phys.:Condens. Matter 29 465901 (2017);
          URL http://www.quantum-espresso.org", 
     in publications or presentations arising from this work. More details at
     http://www.quantum-espresso.org/quote

     Parallel version (MPI), running on     1 processors

     MPI processes distributed on     1 nodes
     Reading input from AlH3_experimental.in

     Current dimensions of program PWSCF are:
     Max number of different atomic species (ntypx) = 10
     Max number of k-points (npk) =  40000
     Max angular momentum in pseudopotentials (lmaxx) =  3
     Message from routine volume:
     axis vectors are left-handed
     file Al.pbe-n-kjpaw_psl.1.0.0.UPF: wavefunction(s)  3S 3P renormalized

     IMPORTANT: XC functional enforced from input :
     Exchange-correlation= PBE
                           (   1   4   3   4   0   0   0)
     Any further DFT definition will be discarded
     Please, verify this is what you really want


     Subspace diagonalization in iterative solution of the eigenvalue problem:
     a serial algorithm will be used

     Message from routine setup:
     using ibrav=0 with symmetry is DISCOURAGED, use correct ibrav instead

     G-vector sticks info
     --------------------
     sticks:   dense  smooth     PW     G-vecs:    dense   smooth      PW
     Sum        3697    2989    823               149509   107227   15593



     bravais-lattice index     =            0
     lattice parameter (alat)  =      16.9673  a.u.
     unit-cell volume          =    1221.1724 (a.u.)^3
     number of atoms/cell      =           16
     number of atomic types    =            2
     number of electrons       =        24.00
     number of Kohn-Sham states=           16
     kinetic-energy cutoff     =      75.0000  Ry
     charge density cutoff     =     375.0000  Ry
     scf convergence threshold =      1.0E-08
     mixing beta               =       0.7000
     number of iterations used =            8  plain     mixing
     Exchange-correlation= PBE
                           (   1   4   3   4   0   0   0)

     celldm(1)=  16.967284  celldm(2)=   0.000000  celldm(3)=   0.000000
     celldm(4)=   0.000000  celldm(5)=   0.000000  celldm(6)=   0.000000

     crystal axes: (cart. coord. in units of alat)
               a(1) = (   0.500000   0.500000   0.000000 )  
               a(2) = (   0.500000   0.000000   0.500000 )  
               a(3) = (   0.000000   0.500000   0.500000 )  

     reciprocal axes: (cart. coord. in units 2 pi/alat)
               b(1) = (  1.000000  1.000000 -1.000000 )  
               b(2) = (  1.000000 -1.000000  1.000000 )  
               b(3) = ( -1.000000  1.000000  1.000000 )  


     PseudoPot. # 1 for H  read from file:
     ../../pseudopotentials/H.pbe-rrkjus_psl.1.0.0.UPF
     MD5 check sum: f52b6d4d1c606e5624b1dc7b2218f220
     Pseudo is Ultrasoft, Zval =  1.0
     Generated using "atomic" code by A. Dal Corso  v.5.1
     Using radial grid of  929 points,  2 beta functions with: 
                l(1) =   0
                l(2) =   0
     Q(r) pseudized with 0 coefficients 


     PseudoPot. # 2 for Al read from file:
     ../../pseudopotentials/Al.pbe-n-kjpaw_psl.1.0.0.UPF
     MD5 check sum: cfc449ca30b5f3223ec38ddd88ac046d
     Pseudo is Projector augmented-wave + core cor, Zval =  3.0
     Generated using "atomic" code by A. Dal Corso  v.5.1
     Shape of augmentation charge: PSQ
     Using radial grid of 1135 points,  6 beta functions with: 
                l(1) =   0
                l(2) =   0
                l(3) =   1
                l(4) =   1
                l(5) =   2
                l(6) =   2
     Q(r) pseudized with 0 coefficients 


     atomic species   valence    mass     pseudopotential
        H              1.00     1.00750     H ( 1.00)
        Al             3.00    26.98100     Al( 1.00)

     48 Sym. Ops., with inversion, found (36 have fractional translation)



   Cartesian axes

     site n.     atom                  positions (alat units)
         1           Al  tau(   1) = (   0.0000000   0.0000000   0.0000000  )
         2           Al  tau(   2) = (   0.2500000   0.0000000   0.2500000  )
         3           Al  tau(   3) = (   0.0000000   0.2500000   0.2500000  )
         4           Al  tau(   4) = (   0.2500000   0.2500000   0.0000000  )
         5           H   tau(   5) = (   0.3199100   0.6250000   0.6250000  )
         6           H   tau(   6) = (   0.3750000   0.6800900   0.3750000  )
         7           H   tau(   7) = (   0.9300900   0.6250000   0.6250000  )
         8           H   tau(   8) = (   0.6250000   0.6250000   0.9300900  )
         9           H   tau(   9) = (   0.0699100   0.3750000   0.3750000  )
        10           H   tau(  10) = (   0.6250000   0.3199100   0.6250000  )
        11           H   tau(  11) = (   0.3750000   0.3750000   0.0699100  )
        12           H   tau(  12) = (   0.6800900   0.3750000   0.3750000  )
        13           H   tau(  13) = (   0.3750000   0.3750000   0.6800900  )
        14           H   tau(  14) = (   0.6250000   0.6250000   0.3199100  )
        15           H   tau(  15) = (   0.6250000   0.9300900   0.6250000  )
        16           H   tau(  16) = (   0.3750000   0.0699100   0.3750000  )

     number of k points=    16  Marzari-Vanderbilt smearing, width (Ry)=  0.0050
                       cart. coord. in units 2pi/alat
        k(    1) = (   0.0000000   0.0000000   0.0000000), wk =   0.0092593
        k(    2) = (  -0.1666667   0.1666667   0.1666667), wk =   0.0740741
        k(    3) = (  -0.3333333   0.3333333   0.3333333), wk =   0.0740741
        k(    4) = (   0.5000000  -0.5000000  -0.5000000), wk =   0.0370370
        k(    5) = (   0.0000000   0.0000000   0.3333333), wk =   0.0555556
        k(    6) = (  -0.1666667   0.1666667   0.5000000), wk =   0.2222222
        k(    7) = (   0.6666667  -0.6666667  -0.3333333), wk =   0.2222222
        k(    8) = (   0.5000000  -0.5000000  -0.1666667), wk =   0.2222222
        k(    9) = (   0.3333333  -0.3333333   0.0000000), wk =   0.1111111
        k(   10) = (   0.0000000   0.0000000   0.6666667), wk =   0.0555556
        k(   11) = (   0.8333333  -0.8333333  -0.1666667), wk =   0.2222222
        k(   12) = (   0.6666667  -0.6666667  -0.0000000), wk =   0.1111111
        k(   13) = (   0.0000000   0.0000000  -1.0000000), wk =   0.0277778
        k(   14) = (   1.0000000  -0.6666667  -0.3333333), wk =   0.2222222
        k(   15) = (   0.8333333  -0.5000000  -0.1666667), wk =   0.2222222
        k(   16) = (   0.0000000   0.3333333  -1.0000000), wk =   0.1111111

     Dense  grid:   149509 G-vectors     FFT dimensions: (  80,  80,  80)

     Smooth grid:   107227 G-vectors     FFT dimensions: (  72,  72,  72)

     Estimated max dynamical RAM per process >     682.96 MB

     Initial potential from superposition of free atoms

     starting charge   23.99072, renormalised to   24.00000
     Starting wfcs are   28 randomized atomic wfcs
     Checking if some PAW data can be deallocated... 

     total cpu time spent up to now is        4.1 secs

     Self-consistent Calculation

     iteration #  1     ecut=    75.00 Ry     beta= 0.70
     Davidson diagonalization with overlap
     ethr =  1.00E-02,  avg # of iterations =  3.8

     total cpu time spent up to now is       12.5 secs

     total energy              =    -171.98073647 Ry
     estimated scf accuracy    <       0.71285473 Ry

     iteration #  2     ecut=    75.00 Ry     beta= 0.70
     Davidson diagonalization with overlap
     ethr =  2.97E-03,  avg # of iterations =  1.0

     total cpu time spent up to now is       18.9 secs

     total energy              =    -172.01600946 Ry
     estimated scf accuracy    <       0.01907220 Ry

     iteration #  3     ecut=    75.00 Ry     beta= 0.70
     Davidson diagonalization with overlap
     ethr =  7.95E-05,  avg # of iterations = 12.5

     total cpu time spent up to now is       31.4 secs

     total energy              =    -172.02189977 Ry
     estimated scf accuracy    <       0.00083379 Ry

     iteration #  4     ecut=    75.00 Ry     beta= 0.70
     Davidson diagonalization with overlap
     ethr =  3.47E-06,  avg # of iterations =  7.6

     total cpu time spent up to now is       41.5 secs

     total energy              =    -172.02211576 Ry
     estimated scf accuracy    <       0.00035279 Ry

     iteration #  5     ecut=    75.00 Ry     beta= 0.70
     Davidson diagonalization with overlap
     ethr =  1.47E-06,  avg # of iterations =  2.4

     total cpu time spent up to now is       48.2 secs

     total energy              =    -172.02211980 Ry
     estimated scf accuracy    <       0.00003601 Ry

     iteration #  6     ecut=    75.00 Ry     beta= 0.70
     Davidson diagonalization with overlap
     ethr =  1.50E-07,  avg # of iterations =  2.2

     total cpu time spent up to now is       56.0 secs

     total energy              =    -172.02213042 Ry
     estimated scf accuracy    <       0.00000144 Ry

     iteration #  7     ecut=    75.00 Ry     beta= 0.70
     Davidson diagonalization with overlap
     ethr =  6.00E-09,  avg # of iterations =  3.4

     total cpu time spent up to now is       64.2 secs

     End of self-consistent calculation

          k = 0.0000 0.0000 0.0000 ( 13371 PWs)   bands (ev):

    -9.1523  -4.9523  -4.9523  -4.9523  -4.8815  -4.0536  -4.0536  -4.0536
    -3.6315  -3.6315  -0.1750  -0.1750   3.3622   4.7931   4.7931   4.7931

          k =-0.1667 0.1667 0.1667 ( 13443 PWs)   bands (ev):

    -9.0467  -5.9405  -5.1350  -5.1350  -4.4878  -3.9103  -3.9103  -3.4438
    -3.4438  -3.3941  -0.3854  -0.3854   3.6212   4.5808   5.0540   5.0540

          k =-0.3333 0.3333 0.3333 ( 13413 PWs)   bands (ev):

    -8.7652  -6.8462  -5.3650  -5.3650  -4.4799  -3.8832  -3.8832  -2.8105
    -2.8105  -2.3614  -0.9457  -0.9457   3.9433   4.3135   4.8225   5.2900

          k = 0.5000-0.5000-0.5000 ( 13396 PWs)   bands (ev):

    -8.5427  -7.2833  -5.4511  -5.4511  -4.4901  -3.8936  -3.8936  -2.2741
    -2.2741  -1.8696  -1.4531  -1.4531   3.4741   4.3405   5.1406   5.1406

          k = 0.0000 0.0000 0.3333 ( 13439 PWs)   bands (ev):

    -9.0095  -5.9990  -5.3378  -5.3378  -4.1564  -4.0857  -3.4800  -3.4749
    -3.4749  -3.3363  -0.5760  -0.3074   3.7098   4.8429   4.8429   4.9223

          k =-0.1667 0.1667 0.5000 ( 13390 PWs)   bands (ev):

    -8.7752  -6.7172  -5.5827  -5.5405  -4.1466  -3.8975  -3.5323  -3.2675
    -2.7708  -2.4529  -1.0807  -0.6391   4.1532   4.2576   4.5185   4.9420

          k = 0.6667-0.6667-0.3333 ( 13378 PWs)   bands (ev):

    -8.4726  -7.3056  -5.7882  -5.5922  -4.1883  -3.6937  -3.5966  -2.8190
    -2.2707  -1.7495  -1.5250  -1.2055   3.5422   4.3448   4.5934   4.9469

          k = 0.5000-0.5000-0.1667 ( 13395 PWs)   bands (ev):

    -8.5654  -7.1518  -5.8232  -5.4741  -4.2131  -3.6596  -3.6091  -2.8221
    -2.7337  -1.7290  -1.4701  -1.0231   3.7661   4.5462   4.5876   4.7576

          k = 0.3333-0.3333 0.0000 ( 13419 PWs)   bands (ev):

    -8.8771  -6.4842  -5.6063  -5.2413  -4.2753  -3.8103  -3.5995  -3.3275
    -3.3255  -2.5586  -0.8534  -0.5450   4.0219   4.5369   4.6419   5.2289

          k = 0.0000 0.0000 0.6667 ( 13384 PWs)   bands (ev):

    -8.5890  -7.0314  -5.7407  -5.7407  -4.1396  -4.0966  -3.0342  -2.6088
    -2.6088  -2.4055  -1.4393  -0.7349   3.7051   3.7051   4.6434   5.4603

          k = 0.8333-0.8333-0.1667 ( 13390 PWs)   bands (ev):

    -8.2600  -7.5228  -5.9548  -5.8005  -4.1366  -3.8111  -2.9601  -2.6459
    -2.2640  -1.7792  -1.7015  -1.1154   3.2928   3.4184   5.0553   5.5964

          k = 0.6667-0.6667-0.0000 ( 13374 PWs)   bands (ev):

    -8.2411  -7.5500  -6.0783  -5.6929  -4.1421  -3.1864  -3.1466  -2.9743
    -2.7006  -1.7152  -1.3385  -1.2253   3.4366   3.7462   4.6094   5.1701

          k = 0.0000 0.0000-1.0000 ( 13424 PWs)   bands (ev):

    -7.9155  -7.9155  -5.8842  -5.8842  -4.1458  -4.1458  -2.3268  -2.3268
    -2.1726  -2.1726  -1.4649  -1.4649   3.0611   3.0611   5.6957   5.6959

          k = 1.0000-0.6667-0.3333 ( 13390 PWs)   bands (ev):

    -8.4942  -7.2036  -5.9151  -5.6762  -3.9548  -3.7636  -3.4051  -2.7628
    -2.7346  -1.7174  -1.5812  -0.9452   3.7747   3.8155   4.8046   4.9542

          k = 0.8333-0.5000-0.1667 ( 13378 PWs)   bands (ev):

    -8.2408  -7.5520  -6.0202  -5.7782  -3.9182  -3.5771  -3.0827  -3.0391
    -2.4463  -1.7182  -1.3690  -1.2544   3.4539   3.6896   4.8489   5.0703

          k = 0.0000 0.3333-1.0000 ( 13402 PWs)   bands (ev):

    -7.9076  -7.9076  -5.9596  -5.9596  -3.8131  -3.8131  -2.8895  -2.8895
    -2.0368  -2.0368  -1.3252  -1.3252   3.2818   3.2818   5.2344   5.2344

     the Fermi energy is     2.0519 ev

!    total energy              =    -172.02213084 Ry
     estimated scf accuracy    <          7.5E-09 Ry
     smearing contrib. (-TS)   =       0.00000000 Ry
     internal energy E=F+TS    =    -172.02213084 Ry

     The total energy is F=E-TS. E is the sum of the following terms:
     one-electron contribution =      -6.29422805 Ry
     hartree contribution      =      10.02005303 Ry
     xc contribution           =     -19.07845834 Ry
     ewald contribution        =     -17.98253087 Ry
     one-center paw contrib.   =    -138.68696661 Ry

     convergence has been achieved in   7 iterations

     Forces acting on atoms (cartesian axes, Ry/au):

     atom    1 type  2   force =     0.00000000    0.00000000    0.00000000
     atom    2 type  2   force =     0.00000000    0.00000000    0.00000000
     atom    3 type  2   force =     0.00000000    0.00000000    0.00000000
     atom    4 type  2   force =     0.00000000    0.00000000   -0.00000000
     atom    5 type  1   force =     0.00329597    0.00000000    0.00000000
     atom    6 type  1   force =    -0.00000000   -0.00329597    0.00000000
     atom    7 type  1   force =    -0.00329597   -0.00000000   -0.00000000
     atom    8 type  1   force =     0.00000000   -0.00000000   -0.00329597
     atom    9 type  1   force =     0.00329597    0.00000000   -0.00000000
     atom   10 type  1   force =     0.00000000    0.00329597    0.00000000
     atom   11 type  1   force =    -0.00000000    0.00000000    0.00329597
     atom   12 type  1   force =    -0.00329597    0.00000000    0.00000000
     atom   13 type  1   force =     0.00000000    0.00000000   -0.00329597
     atom   14 type  1   force =    -0.00000000    0.00000000    0.00329597
     atom   15 type  1   force =     0.00000000   -0.00329597    0.00000000
     atom   16 type  1   force =     0.00000000    0.00329597    0.00000000

     Total force =     0.011418     Total SCF correction =     0.000026


     Computing stress (Cartesian axis) and pressure

          total   stress  (Ry/bohr**3)                   (kbar)     P=       17.44
   0.00011852  -0.00000000   0.00000000           17.44       -0.00        0.00
  -0.00000000   0.00011852   0.00000000           -0.00       17.44        0.00
   0.00000000   0.00000000   0.00011852            0.00        0.00       17.44


     Writing output data file ./AlH3_experimental.save/

     init_run     :     10.90s CPU      4.00s WALL (       1 calls)
     electrons    :    240.72s CPU     60.12s WALL (       1 calls)
     forces       :      4.94s CPU      1.37s WALL (       1 calls)
     stress       :     23.31s CPU      6.81s WALL (       1 calls)

     Called by init_run:
     wfcinit      :      9.03s CPU      2.64s WALL (       1 calls)
     potinit      :      0.56s CPU      0.60s WALL (       1 calls)
     hinit0       :      0.50s CPU      0.35s WALL (       1 calls)

     Called by electrons:
     c_bands      :    189.08s CPU     43.15s WALL (       7 calls)
     sum_band     :     43.02s CPU     10.37s WALL (       7 calls)
     v_of_rho     :      1.56s CPU      1.70s WALL (       8 calls)
     newd         :      4.99s CPU      2.61s WALL (       8 calls)
     PAW_pot      :      2.75s CPU      2.75s WALL (       8 calls)
     mix_rho      :      0.22s CPU      0.23s WALL (       7 calls)

     Called by c_bands:
     init_us_2    :      8.90s CPU      1.94s WALL (     272 calls)
     cegterg      :    161.72s CPU     36.13s WALL (     112 calls)

     Called by *egterg:
     cdiaghg      :      1.98s CPU      0.18s WALL (     639 calls)
     h_psi        :    129.63s CPU     34.63s WALL (     655 calls)
     s_psi        :     14.26s CPU      1.19s WALL (     655 calls)
     g_psi        :      2.54s CPU      0.32s WALL (     527 calls)

     Called by h_psi:
     h_psi:calbec :     11.80s CPU      1.69s WALL (     655 calls)
     vloc_psi     :     97.76s CPU     31.27s WALL (     655 calls)
     add_vuspsi   :     19.15s CPU      1.51s WALL (     655 calls)

     General routines
     calbec       :     15.36s CPU      2.12s WALL (     847 calls)
     fft          :      1.67s CPU      1.57s WALL (     127 calls)
     ffts         :      0.16s CPU      0.06s WALL (      15 calls)
     fftw         :     91.89s CPU     30.36s WALL (   13524 calls)
     interpolate  :      0.14s CPU      0.14s WALL (       8 calls)

     Parallel routines

     PWSCF        :   4m40.06s CPU   1m12.49s WALL


   This run was terminated on:  13:44:43  11Nov2023            

=------------------------------------------------------------------------------=
   JOB DONE.
=------------------------------------------------------------------------------=
