
     Program PWSCF v.6.7MaX starts on 24Oct2023 at 13: 3:34 

     This program is part of the open-source Quantum ESPRESSO suite
     for quantum simulation of materials; please cite
         "P. Giannozzi et al., J. Phys.:Condens. Matter 21 395502 (2009);
         "P. Giannozzi et al., J. Phys.:Condens. Matter 29 465901 (2017);
          URL http://www.quantum-espresso.org", 
     in publications or presentations arising from this work. More details at
     http://www.quantum-espresso.org/quote

     Parallel version (MPI), running on     1 processors

     MPI processes distributed on     1 nodes
     Reading input from Na3AlH6_experimental.in

     Current dimensions of program PWSCF are:
     Max number of different atomic species (ntypx) = 10
     Max number of k-points (npk) =  40000
     Max angular momentum in pseudopotentials (lmaxx) =  3
     file Al.pbe-n-kjpaw_psl.1.0.0.UPF: wavefunction(s)  3S 3P renormalized

     IMPORTANT: XC functional enforced from input :
     Exchange-correlation= PBE
                           (   1   4   3   4   0   0   0)
     Any further DFT definition will be discarded
     Please, verify this is what you really want


     Subspace diagonalization in iterative solution of the eigenvalue problem:
     a serial algorithm will be used

     Message from routine setup:
     using ibrav=0 with symmetry is DISCOURAGED, use correct ibrav instead

     G-vector sticks info
     --------------------
     sticks:   dense  smooth     PW     G-vecs:    dense   smooth      PW
     Sum        3087    2479    707               183223   131109   20173



     bravais-lattice index     =            0
     lattice parameter (alat)  =      10.0031  a.u.
     unit-cell volume          =    1494.3871 (a.u.)^3
     number of atoms/cell      =           20
     number of atomic types    =            3
     number of electrons       =        72.00
     number of Kohn-Sham states=           43
     kinetic-energy cutoff     =      75.0000  Ry
     charge density cutoff     =     375.0000  Ry
     scf convergence threshold =      1.0E-08
     mixing beta               =       0.7000
     number of iterations used =            8  plain     mixing
     Exchange-correlation= PBE
                           (   1   4   3   4   0   0   0)

     celldm(1)=  10.003076  celldm(2)=   0.000000  celldm(3)=   0.000000
     celldm(4)=   0.000000  celldm(5)=   0.000000  celldm(6)=   0.000000

     crystal axes: (cart. coord. in units of alat)
               a(1) = (   1.000000   0.000000   0.000000 )  
               a(2) = (   0.000000   1.037180   0.000000 )  
               a(3) = (  -0.999562   0.000000   1.439488 )  

     reciprocal axes: (cart. coord. in units 2 pi/alat)
               b(1) = (  1.000000 -0.000000  0.694387 )  
               b(2) = (  0.000000  0.964153 -0.000000 )  
               b(3) = (  0.000000  0.000000  0.694691 )  


     PseudoPot. # 1 for Na read from file:
     ../../pseudopotentials/na_pbe_v1.5.uspp.F.UPF
     MD5 check sum: 44600605ef58000f06b90626533354dc
     Pseudo is Ultrasoft, Zval =  9.0
     Generated by new atomic code, or converted to UPF format
     Using radial grid of  819 points,  5 beta functions with: 
                l(1) =   0
                l(2) =   0
                l(3) =   1
                l(4) =   1
                l(5) =   2
     Q(r) pseudized with  8 coefficients,  rinner =    1.250   1.250   1.250
                                                       1.250   1.250

     PseudoPot. # 2 for H  read from file:
     ../../pseudopotentials/H.pbe-rrkjus_psl.1.0.0.UPF
     MD5 check sum: f52b6d4d1c606e5624b1dc7b2218f220
     Pseudo is Ultrasoft, Zval =  1.0
     Generated using "atomic" code by A. Dal Corso  v.5.1
     Using radial grid of  929 points,  2 beta functions with: 
                l(1) =   0
                l(2) =   0
     Q(r) pseudized with 0 coefficients 


     PseudoPot. # 3 for Al read from file:
     ../../pseudopotentials/Al.pbe-n-kjpaw_psl.1.0.0.UPF
     MD5 check sum: cfc449ca30b5f3223ec38ddd88ac046d
     Pseudo is Projector augmented-wave + core cor, Zval =  3.0
     Generated using "atomic" code by A. Dal Corso  v.5.1
     Shape of augmentation charge: PSQ
     Using radial grid of 1135 points,  6 beta functions with: 
                l(1) =   0
                l(2) =   0
                l(3) =   1
                l(4) =   1
                l(5) =   2
                l(6) =   2
     Q(r) pseudized with 0 coefficients 


     atomic species   valence    mass     pseudopotential
        Na             9.00    22.98900     Na( 1.00)
        H              1.00     1.00750     H ( 1.00)
        Al             3.00    26.98100     Al( 1.00)

      4 Sym. Ops., with inversion, found ( 2 have fractional translation)



   Cartesian axes

     site n.     atom                  positions (alat units)
         1           Al  tau(   1) = (   0.5000000   0.0000000   0.0000000  )
         2           Al  tau(   2) = (   0.0002188   0.5185901   0.7197441  )
         3           Na  tau(   3) = (  -0.4997812   0.0000000   0.7197441  )
         4           Na  tau(   4) = (   0.0000000   0.5185901   0.0000000  )
         5           Na  tau(   5) = (   0.0112779   0.9881424   0.3547907  )
         6           Na  tau(   6) = (  -0.0108402   0.0490379   1.0846976  )
         7           Na  tau(   7) = (   0.4889410   0.4695522   0.3649535  )
         8           Na  tau(   8) = (  -0.4885033   0.5676280   1.0745348  )
         9           H   tau(   9) = (  -0.1610436   0.7957662   0.8104031  )
        10           H   tau(  10) = (   0.1614812   0.2414141   0.6290852  )
        11           H   tau(  11) = (  -0.3382999   0.2771761   1.3488293  )
        12           H   tau(  12) = (   0.3387376   0.7600042   0.0906590  )
        13           H   tau(  13) = (  -0.2276214   0.8611500   1.3769569  )
        14           H   tau(  14) = (   0.2280590   0.1760302   0.0625314  )
        15           H   tau(  15) = (  -0.2717222   0.3425599   0.7822755  )
        16           H   tau(  16) = (   0.2721598   0.6946204   0.6572128  )
        17           H   tau(  17) = (  -0.5991672   0.9877068   1.1274936  )
        18           H   tau(  18) = (   0.5996049   0.0494735   0.3119947  )
        19           H   tau(  19) = (   0.0998237   0.4691166   1.0317388  )
        20           H   tau(  20) = (  -0.0993860   0.5680636   0.4077495  )

     number of k points=    56  Marzari-Vanderbilt smearing, width (Ry)=  0.0050
                       cart. coord. in units 2pi/alat
        k(    1) = (   0.0000000   0.0000000   0.0000000), wk =   0.0138889
        k(    2) = (   0.0000000   0.0000000   0.1736728), wk =   0.0277778
        k(    3) = (   0.0000000   0.0000000  -0.3473457), wk =   0.0138889
        k(    4) = (   0.0000000   0.1606921   0.0000000), wk =   0.0277778
        k(    5) = (   0.0000000   0.1606921   0.1736728), wk =   0.0555556
        k(    6) = (   0.0000000   0.1606921  -0.3473457), wk =   0.0277778
        k(    7) = (   0.0000000   0.3213842   0.0000000), wk =   0.0277778
        k(    8) = (   0.0000000   0.3213842   0.1736728), wk =   0.0555556
        k(    9) = (   0.0000000   0.3213842  -0.3473457), wk =   0.0277778
        k(   10) = (   0.0000000  -0.4820763   0.0000000), wk =   0.0138889
        k(   11) = (   0.0000000  -0.4820763   0.1736728), wk =   0.0277778
        k(   12) = (   0.0000000  -0.4820763  -0.3473457), wk =   0.0138889
        k(   13) = (   0.1666667   0.0000000   0.1157312), wk =   0.0277778
        k(   14) = (   0.1666667   0.0000000   0.2894040), wk =   0.0277778
        k(   15) = (   0.1666667   0.0000000  -0.2316144), wk =   0.0277778
        k(   16) = (   0.1666667   0.0000000  -0.0579416), wk =   0.0277778
        k(   17) = (   0.1666667   0.1606921   0.1157312), wk =   0.0555556
        k(   18) = (   0.1666667   0.1606921   0.2894040), wk =   0.0555556
        k(   19) = (   0.1666667   0.1606921  -0.2316144), wk =   0.0555556
        k(   20) = (   0.1666667   0.1606921  -0.0579416), wk =   0.0555556
        k(   21) = (   0.1666667   0.3213842   0.1157312), wk =   0.0555556
        k(   22) = (   0.1666667   0.3213842   0.2894040), wk =   0.0555556
        k(   23) = (   0.1666667   0.3213842  -0.2316144), wk =   0.0555556
        k(   24) = (   0.1666667   0.3213842  -0.0579416), wk =   0.0555556
        k(   25) = (   0.1666667  -0.4820763   0.1157312), wk =   0.0277778
        k(   26) = (   0.1666667  -0.4820763   0.2894040), wk =   0.0277778
        k(   27) = (   0.1666667  -0.4820763  -0.2316144), wk =   0.0277778
        k(   28) = (   0.1666667  -0.4820763  -0.0579416), wk =   0.0277778
        k(   29) = (   0.3333333   0.0000000   0.2314624), wk =   0.0277778
        k(   30) = (   0.3333333   0.0000000   0.4051353), wk =   0.0277778
        k(   31) = (   0.3333333   0.0000000  -0.1158832), wk =   0.0277778
        k(   32) = (   0.3333333   0.0000000   0.0577896), wk =   0.0277778
        k(   33) = (   0.3333333   0.1606921   0.2314624), wk =   0.0555556
        k(   34) = (   0.3333333   0.1606921   0.4051353), wk =   0.0555556
        k(   35) = (   0.3333333   0.1606921  -0.1158832), wk =   0.0555556
        k(   36) = (   0.3333333   0.1606921   0.0577896), wk =   0.0555556
        k(   37) = (   0.3333333   0.3213842   0.2314624), wk =   0.0555556
        k(   38) = (   0.3333333   0.3213842   0.4051353), wk =   0.0555556
        k(   39) = (   0.3333333   0.3213842  -0.1158832), wk =   0.0555556
        k(   40) = (   0.3333333   0.3213842   0.0577896), wk =   0.0555556
        k(   41) = (   0.3333333  -0.4820763   0.2314624), wk =   0.0277778
        k(   42) = (   0.3333333  -0.4820763   0.4051353), wk =   0.0277778
        k(   43) = (   0.3333333  -0.4820763  -0.1158832), wk =   0.0277778
        k(   44) = (   0.3333333  -0.4820763   0.0577896), wk =   0.0277778
        k(   45) = (  -0.5000000   0.0000000  -0.3471936), wk =   0.0138889
        k(   46) = (  -0.5000000   0.0000000  -0.1735208), wk =   0.0277778
        k(   47) = (  -0.5000000   0.0000000  -0.6945393), wk =   0.0138889
        k(   48) = (  -0.5000000   0.1606921  -0.3471936), wk =   0.0277778
        k(   49) = (  -0.5000000   0.1606921  -0.1735208), wk =   0.0555556
        k(   50) = (  -0.5000000   0.1606921  -0.6945393), wk =   0.0277778
        k(   51) = (  -0.5000000   0.3213842  -0.3471936), wk =   0.0277778
        k(   52) = (  -0.5000000   0.3213842  -0.1735208), wk =   0.0555556
        k(   53) = (  -0.5000000   0.3213842  -0.6945393), wk =   0.0277778
        k(   54) = (  -0.5000000  -0.4820763  -0.3471936), wk =   0.0138889
        k(   55) = (  -0.5000000  -0.4820763  -0.1735208), wk =   0.0277778
        k(   56) = (  -0.5000000  -0.4820763  -0.6945393), wk =   0.0138889

     Dense  grid:   183223 G-vectors     FFT dimensions: (  64,  64, 120)

     Smooth grid:   131109 G-vectors     FFT dimensions: (  60,  60, 100)

     Estimated max dynamical RAM per process >       1.36 GB

     Initial potential from superposition of free atoms

     starting charge   71.95756, renormalised to   72.00000
     Starting wfcs are   50 randomized atomic wfcs
     Checking if some PAW data can be deallocated... 

     total cpu time spent up to now is       21.8 secs

     Self-consistent Calculation

     iteration #  1     ecut=    75.00 Ry     beta= 0.70
     Davidson diagonalization with overlap
     ethr =  1.00E-02,  avg # of iterations =  5.6

     total cpu time spent up to now is       81.0 secs

     total energy              =    -665.23201586 Ry
     estimated scf accuracy    <       0.94133879 Ry

     iteration #  2     ecut=    75.00 Ry     beta= 0.70
     Davidson diagonalization with overlap
     ethr =  1.31E-03,  avg # of iterations =  2.0

     total cpu time spent up to now is      130.3 secs

     total energy              =    -665.33046066 Ry
     estimated scf accuracy    <       0.02135852 Ry

     iteration #  3     ecut=    75.00 Ry     beta= 0.70
     Davidson diagonalization with overlap
     ethr =  2.97E-05,  avg # of iterations =  9.3

     total cpu time spent up to now is      204.3 secs

     total energy              =    -665.33700177 Ry
     estimated scf accuracy    <       0.00183235 Ry

     iteration #  4     ecut=    75.00 Ry     beta= 0.70
     Davidson diagonalization with overlap
     ethr =  2.54E-06,  avg # of iterations =  4.0

     total cpu time spent up to now is      256.1 secs

     total energy              =    -665.33743934 Ry
     estimated scf accuracy    <       0.00009421 Ry

     iteration #  5     ecut=    75.00 Ry     beta= 0.70
     Davidson diagonalization with overlap
     ethr =  1.31E-07,  avg # of iterations =  3.7

     total cpu time spent up to now is      309.5 secs

     total energy              =    -665.33746230 Ry
     estimated scf accuracy    <       0.00000940 Ry

     iteration #  6     ecut=    75.00 Ry     beta= 0.70
     Davidson diagonalization with overlap
     ethr =  1.31E-08,  avg # of iterations =  2.0

     total cpu time spent up to now is      356.4 secs

     total energy              =    -665.33746339 Ry
     estimated scf accuracy    <       0.00000018 Ry

     iteration #  7     ecut=    75.00 Ry     beta= 0.70
     Davidson diagonalization with overlap
     ethr =  2.49E-10,  avg # of iterations =  4.0

     total cpu time spent up to now is      416.2 secs

     total energy              =    -665.33746347 Ry
     estimated scf accuracy    <       0.00000007 Ry

     iteration #  8     ecut=    75.00 Ry     beta= 0.70
     Davidson diagonalization with overlap
     ethr =  9.80E-11,  avg # of iterations =  3.0

     total cpu time spent up to now is      465.5 secs

     total energy              =    -665.33746348 Ry
     estimated scf accuracy    <       0.00000001 Ry

     iteration #  9     ecut=    75.00 Ry     beta= 0.70
     Davidson diagonalization with overlap
     ethr =  1.98E-11,  avg # of iterations =  3.1

     total cpu time spent up to now is      515.0 secs

     End of self-consistent calculation

          k = 0.0000 0.0000 0.0000 ( 16357 PWs)   bands (ev):

   -49.1170 -49.1163 -49.1157 -49.1153 -48.9998 -48.9995 -21.0693 -21.0642
   -21.0605 -21.0546 -21.0519 -21.0512 -21.0486 -21.0474 -21.0365 -21.0324
   -21.0308 -21.0281 -20.9361 -20.9310 -20.9302 -20.9284 -20.9222 -20.9197
    -5.1793  -4.1881  -1.8580  -1.1091  -0.9974  -0.4517  -0.4149  -0.3959
     0.0881   0.8983   1.1950   1.5874   4.5263   5.4549   6.1369   6.8566
     7.0378   7.4231   7.7870

          k = 0.0000 0.0000 0.1737 ( 16402 PWs)   bands (ev):

   -49.1169 -49.1164 -49.1156 -49.1153 -48.9998 -48.9996 -21.0681 -21.0633
   -21.0601 -21.0551 -21.0537 -21.0521 -21.0483 -21.0456 -21.0361 -21.0325
   -21.0317 -21.0289 -20.9350 -20.9314 -20.9295 -20.9283 -20.9226 -20.9208
    -5.0699  -4.3892  -1.6312  -1.0614  -0.9289  -0.5922  -0.5749  -0.5214
     0.2984   1.0079   1.0923   1.4888   4.8826   5.6262   6.1789   6.6068
     6.7442   7.3559   7.5726

          k = 0.0000 0.0000-0.3473 ( 16392 PWs)   bands (ev):

   -49.1167 -49.1167 -49.1155 -49.1155 -48.9997 -48.9997 -21.0646 -21.0646
   -21.0590 -21.0590 -21.0521 -21.0521 -21.0470 -21.0470 -21.0342 -21.0342
   -21.0309 -21.0309 -20.9328 -20.9328 -20.9283 -20.9283 -20.9226 -20.9226
    -4.7701  -4.7701  -1.1829  -1.1829  -0.7658  -0.7658  -0.7434  -0.7434
     0.7404   0.7404   1.2526   1.2526   5.6972   5.6972   6.0774   6.0774
     6.8347   6.8347   7.4187

          k = 0.0000 0.1607 0.0000 ( 16343 PWs)   bands (ev):

   -49.1169 -49.1162 -49.1158 -49.1154 -48.9998 -48.9996 -21.0694 -21.0630
   -21.0586 -21.0577 -21.0522 -21.0515 -21.0473 -21.0450 -21.0370 -21.0335
   -21.0318 -21.0297 -20.9344 -20.9305 -20.9299 -20.9287 -20.9227 -20.9206
    -5.0872  -4.1880  -1.7746  -1.4012  -0.9435  -0.7238  -0.5625  -0.4137
     0.4095   0.9172   1.2029   1.5310   4.8521   5.5949   6.0720   6.7333
     7.0803   7.4087   7.7359

          k = 0.0000 0.1607 0.1737 ( 16375 PWs)   bands (ev):

   -49.1168 -49.1163 -49.1157 -49.1154 -48.9998 -48.9996 -21.0678 -21.0623
   -21.0589 -21.0558 -21.0544 -21.0518 -21.0479 -21.0447 -21.0367 -21.0332
   -21.0329 -21.0302 -20.9337 -20.9309 -20.9294 -20.9284 -20.9231 -20.9213
    -4.9831  -4.3587  -1.7451  -1.1782  -1.0277  -0.8759  -0.5091  -0.4446
     0.5238   0.9852   1.1288   1.4397   5.0551   5.7191   6.2010   6.6612
     6.8258   7.0388   7.5530

          k = 0.0000 0.1607-0.3473 ( 16422 PWs)   bands (ev):

   -49.1166 -49.1166 -49.1156 -49.1156 -48.9997 -48.9997 -21.0640 -21.0640
   -21.0582 -21.0582 -21.0521 -21.0521 -21.0473 -21.0473 -21.0352 -21.0352
   -21.0317 -21.0317 -20.9321 -20.9321 -20.9285 -20.9285 -20.9228 -20.9228
    -4.7018  -4.7018  -1.5068  -1.5068  -0.7152  -0.7152  -0.6589  -0.6589
     0.8304   0.8304   1.2231   1.2231   5.6019   5.6019   6.1975   6.1975
     6.9874   6.9874   7.5467

          k = 0.0000 0.3214 0.0000 ( 16414 PWs)   bands (ev):

   -49.1166 -49.1161 -49.1160 -49.1156 -48.9998 -48.9996 -21.0688 -21.0632
   -21.0592 -21.0548 -21.0535 -21.0505 -21.0456 -21.0431 -21.0374 -21.0363
   -21.0340 -21.0324 -20.9311 -20.9298 -20.9292 -20.9291 -20.9239 -20.9226
    -4.8343  -4.2598  -1.7480  -1.5404  -1.2712  -0.8490  -0.7849  -0.4541
     0.7443   1.0290   1.1541   1.3695   5.4932   5.7616   6.3192   6.4393
     7.3195   7.3474   7.5046

          k = 0.0000 0.3214 0.1737 ( 16378 PWs)   bands (ev):

   -49.1166 -49.1162 -49.1159 -49.1156 -48.9997 -48.9997 -21.0668 -21.0620
   -21.0582 -21.0549 -21.0538 -21.0506 -21.0469 -21.0445 -21.0387 -21.0358
   -21.0345 -21.0322 -20.9313 -20.9302 -20.9293 -20.9284 -20.9240 -20.9224
    -4.7508  -4.3378  -2.0366  -1.6502  -1.0323  -0.7474  -0.5625  -0.4813
     0.7763   0.9857   1.1357   1.3076   5.2988   5.6603   6.6355   6.7300
     6.8654   7.3237   7.5518

          k = 0.0000 0.3214-0.3473 ( 16386 PWs)   bands (ev):

   -49.1164 -49.1164 -49.1158 -49.1158 -48.9997 -48.9997 -21.0628 -21.0628
   -21.0565 -21.0565 -21.0516 -21.0516 -21.0476 -21.0476 -21.0382 -21.0382
   -21.0328 -21.0328 -20.9310 -20.9310 -20.9287 -20.9287 -20.9230 -20.9230
    -4.5432  -4.5432  -2.0116  -2.0116  -0.6531  -0.6531  -0.5200  -0.5200
     0.8872   0.8872   1.1694   1.1694   5.3486   5.3486   6.7966   6.7966
     7.1530   7.1531   7.6357

          k = 0.0000-0.4821 0.0000 ( 16388 PWs)   bands (ev):

   -49.1163 -49.1163 -49.1158 -49.1158 -48.9997 -48.9997 -21.0667 -21.0667
   -21.0558 -21.0558 -21.0515 -21.0515 -21.0439 -21.0439 -21.0372 -21.0372
   -21.0348 -21.0348 -20.9296 -20.9296 -20.9287 -20.9287 -20.9243 -20.9243
    -4.5053  -4.5053  -1.6953  -1.6953  -1.2036  -1.2036  -0.5939  -0.5939
     0.9651   0.9651   1.2099   1.2099   5.7898   5.7898   6.4673   6.4673
     7.0312   7.0312   8.1550

          k = 0.0000-0.4821 0.1737 ( 16422 PWs)   bands (ev):

   -49.1162 -49.1162 -49.1159 -49.1159 -48.9997 -48.9997 -21.0647 -21.0647
   -21.0559 -21.0559 -21.0507 -21.0507 -21.0459 -21.0459 -21.0388 -21.0388
   -21.0340 -21.0340 -20.9302 -20.9302 -20.9287 -20.9287 -20.9236 -20.9236
    -4.4775  -4.4775  -2.0413  -2.0413  -0.8039  -0.8039  -0.5655  -0.5655
     0.9074   0.9074   1.1943   1.1943   5.4657   5.4657   6.6155   6.6155
     7.5564   7.5565   8.0536

          k = 0.0000-0.4821-0.3473 ( 16396 PWs)   bands (ev):

   -49.1161 -49.1161 -49.1161 -49.1161 -48.9997 -48.9997 -21.0623 -21.0623
   -21.0556 -21.0556 -21.0510 -21.0510 -21.0474 -21.0474 -21.0404 -21.0404
   -21.0334 -21.0334 -20.9307 -20.9307 -20.9287 -20.9287 -20.9230 -20.9230
    -4.4479  -4.4479  -2.2458  -2.2458  -0.6222  -0.6222  -0.4479  -0.4479
     0.8557   0.8557   1.1587   1.1587   5.2426   5.2426   6.8948   6.8948
     7.3544   7.3544   8.1837

          k = 0.1667 0.0000 0.1157 ( 16395 PWs)   bands (ev):

   -49.1169 -49.1163 -49.1157 -49.1154 -48.9998 -48.9996 -21.0675 -21.0654
   -21.0573 -21.0571 -21.0529 -21.0522 -21.0463 -21.0461 -21.0366 -21.0351
   -21.0318 -21.0294 -20.9333 -20.9307 -20.9304 -20.9276 -20.9237 -20.9205
    -5.0322  -4.2493  -1.7740  -1.1899  -1.0480  -0.8607  -0.4550  -0.4542
     0.3538   0.9170   1.1660   1.5395   4.9247   5.6651   6.2786   6.5888
     6.9351   7.2026   7.2239

          k = 0.1667 0.0000 0.2894 ( 16379 PWs)   bands (ev):

   -49.1167 -49.1165 -49.1156 -49.1155 -48.9997 -48.9997 -21.0650 -21.0649
   -21.0581 -21.0576 -21.0530 -21.0509 -21.0477 -21.0463 -21.0358 -21.0356
   -21.0319 -21.0309 -20.9318 -20.9318 -20.9303 -20.9275 -20.9237 -20.9213
    -4.8034  -4.5685  -1.5807  -1.3178  -0.8941  -0.8007  -0.6129  -0.5870
     0.6464   0.9644   1.0371   1.4172   5.5260   5.5500   6.2585   6.3910
     6.5091   7.3279   7.5284

          k = 0.1667 0.0000-0.2316 ( 16381 PWs)   bands (ev):

   -49.1168 -49.1164 -49.1157 -49.1154 -48.9998 -48.9996 -21.0670 -21.0614
   -21.0605 -21.0552 -21.0531 -21.0513 -21.0505 -21.0466 -21.0357 -21.0337
   -21.0323 -21.0303 -20.9338 -20.9307 -20.9298 -20.9293 -20.9215 -20.9214
    -4.8923  -4.4591  -1.6217  -1.2233  -1.0231  -0.8310  -0.6526  -0.4613
     0.6070   0.9663   1.2027   1.2784   5.1101   6.0384   6.2437   6.4871
     6.6209   6.9691   7.3762

          k = 0.1667 0.0000-0.0579 ( 16406 PWs)   bands (ev):

   -49.1169 -49.1163 -49.1158 -49.1153 -48.9998 -48.9996 -21.0682 -21.0643
   -21.0587 -21.0561 -21.0527 -21.0512 -21.0480 -21.0478 -21.0359 -21.0341
   -21.0316 -21.0290 -20.9344 -20.9306 -20.9301 -20.9290 -20.9222 -20.9201
    -5.0651  -4.1938  -1.7506  -1.3360  -1.0498  -0.7407  -0.4737  -0.4552
     0.3352   0.9969   1.1442   1.4884   4.8330   5.7258   6.1508   6.5682
     7.0458   7.4117   7.6023

          k = 0.1667 0.1607 0.1157 ( 16391 PWs)   bands (ev):

   -49.1168 -49.1162 -49.1158 -49.1154 -48.9998 -48.9996 -21.0696 -21.0621
   -21.0588 -21.0572 -21.0551 -21.0503 -21.0460 -21.0446 -21.0373 -21.0364
   -21.0319 -21.0292 -20.9325 -20.9308 -20.9299 -20.9280 -20.9238 -20.9208
    -4.9456  -4.2323  -1.7503  -1.2786  -1.1032  -0.9764  -0.6607  -0.4955
     0.5862   0.8583   1.2017   1.4804   5.1725   5.8501   6.1507   6.5739
     6.8803   7.2205   7.6392

          k = 0.1667 0.1607 0.2894 ( 16392 PWs)   bands (ev):

   -49.1166 -49.1164 -49.1157 -49.1156 -48.9997 -48.9997 -21.0659 -21.0633
   -21.0588 -21.0564 -21.0535 -21.0507 -21.0482 -21.0461 -21.0374 -21.0360
   -21.0321 -21.0302 -20.9315 -20.9311 -20.9301 -20.9277 -20.9238 -20.9216
    -4.7301  -4.5135  -1.6638  -1.4315  -1.0678  -0.9073  -0.6589  -0.4724
     0.7551   0.9404   1.0943   1.3712   5.6001   5.7553   6.1301   6.3883
     6.6740   7.0512   7.7505

          k = 0.1667 0.1607-0.2316 ( 16394 PWs)   bands (ev):

   -49.1167 -49.1163 -49.1157 -49.1155 -48.9998 -48.9996 -21.0674 -21.0614
   -21.0585 -21.0551 -21.0544 -21.0525 -21.0495 -21.0461 -21.0369 -21.0343
   -21.0316 -21.0308 -20.9327 -20.9303 -20.9298 -20.9290 -20.9222 -20.9218
    -4.8132  -4.4155  -1.6872  -1.3416  -1.1415  -0.8262  -0.8041  -0.4423
     0.8086   1.0187   1.1348   1.1930   5.3643   6.0630   6.2194   6.3529
     6.7159   7.1218   7.4042

          k = 0.1667 0.1607-0.0579 ( 16393 PWs)   bands (ev):

   -49.1168 -49.1162 -49.1158 -49.1154 -48.9998 -48.9996 -21.0701 -21.0615
   -21.0588 -21.0576 -21.0539 -21.0504 -21.0487 -21.0448 -21.0366 -21.0350
   -21.0316 -21.0294 -20.9333 -20.9306 -20.9298 -20.9288 -20.9229 -20.9206
    -4.9767  -4.1857  -1.6953  -1.2951  -1.2588  -0.8845  -0.6100  -0.5522
     0.6179   0.9074   1.1778   1.4044   5.1722   5.8308   6.0613   6.8305
     6.9028   7.1825   7.7703

          k = 0.1667 0.3214 0.1157 ( 16377 PWs)   bands (ev):

   -49.1165 -49.1161 -49.1160 -49.1156 -48.9998 -48.9997 -21.0699 -21.0644
   -21.0575 -21.0563 -21.0552 -21.0512 -21.0453 -21.0430 -21.0372 -21.0367
   -21.0326 -21.0305 -20.9319 -20.9303 -20.9293 -20.9286 -20.9236 -20.9215
    -4.7119  -4.2496  -1.8596  -1.4511  -1.2815  -0.9650  -0.7117  -0.7023
     0.7249   0.8452   1.2104   1.3662   5.5924   5.9515   6.3226   6.6606
     7.1657   7.3702   7.8176

          k = 0.1667 0.3214 0.2894 ( 16380 PWs)   bands (ev):

   -49.1164 -49.1163 -49.1158 -49.1157 -48.9997 -48.9997 -21.0654 -21.0629
   -21.0587 -21.0558 -21.0541 -21.0513 -21.0482 -21.0466 -21.0386 -21.0350
   -21.0335 -21.0305 -20.9311 -20.9300 -20.9294 -20.9285 -20.9236 -20.9223
    -4.5482  -4.4022  -1.9851  -1.8375  -1.0231  -0.8926  -0.6365  -0.5037
     0.8345   0.8661   1.1578   1.2841   5.6028   5.6830   6.5145   6.8531
     7.0782   7.1936   7.8115

          k = 0.1667 0.3214-0.2316 ( 16390 PWs)   bands (ev):

   -49.1165 -49.1162 -49.1159 -49.1157 -48.9997 -48.9997 -21.0669 -21.0627
   -21.0569 -21.0550 -21.0546 -21.0523 -21.0494 -21.0465 -21.0382 -21.0340
   -21.0329 -21.0312 -20.9307 -20.9298 -20.9292 -20.9287 -20.9234 -20.9230
    -4.6092  -4.3442  -1.9724  -1.7508  -1.1125  -0.7871  -0.7211  -0.5678
     0.9459   0.9778   1.0774   1.1202   5.6212   5.9843   6.4000   6.7317
     6.8798   7.4714   7.5576

          k = 0.1667 0.3214-0.0579 ( 16374 PWs)   bands (ev):

   -49.1166 -49.1161 -49.1160 -49.1156 -48.9998 -48.9997 -21.0705 -21.0648
   -21.0574 -21.0561 -21.0536 -21.0516 -21.0472 -21.0431 -21.0373 -21.0350
   -21.0317 -21.0315 -20.9318 -20.9297 -20.9295 -20.9286 -20.9238 -20.9219
    -4.7367  -4.2291  -1.7513  -1.3938  -1.3259  -1.0653  -0.7948  -0.6654
     0.7688   0.9372   1.1654   1.2465   5.8342   6.0271   6.1601   6.7798
     6.9168   7.2841   7.5767

          k = 0.1667-0.4821 0.1157 ( 16376 PWs)   bands (ev):

   -49.1162 -49.1162 -49.1159 -49.1159 -48.9997 -48.9997 -21.0679 -21.0679
   -21.0563 -21.0563 -21.0538 -21.0538 -21.0437 -21.0437 -21.0353 -21.0353
   -21.0333 -21.0333 -20.9313 -20.9313 -20.9287 -20.9287 -20.9225 -20.9225
    -4.4260  -4.4260  -1.8237  -1.8237  -1.0160  -1.0160  -0.7904  -0.7904
     0.7702   0.7702   1.2750   1.2750   5.7665   5.7665   6.8095   6.8095
     7.2097   7.2097   8.3363

          k = 0.1667-0.4821 0.2894 ( 16402 PWs)   bands (ev):

   -49.1161 -49.1161 -49.1160 -49.1160 -48.9997 -48.9997 -21.0640 -21.0640
   -21.0570 -21.0570 -21.0532 -21.0532 -21.0476 -21.0476 -21.0364 -21.0364
   -21.0324 -21.0324 -20.9305 -20.9305 -20.9288 -20.9288 -20.9229 -20.9229
    -4.3894  -4.3894  -2.1162  -2.1162  -0.8507  -0.8507  -0.6295  -0.6295
     0.8351   0.8351   1.2020   1.2020   5.5686   5.5686   6.9771   6.9771
     7.4201   7.4201   7.9567

          k = 0.1667-0.4821-0.2316 ( 16390 PWs)   bands (ev):

   -49.1162 -49.1162 -49.1159 -49.1159 -48.9997 -48.9997 -21.0649 -21.0649
   -21.0565 -21.0565 -21.0522 -21.0522 -21.0485 -21.0485 -21.0364 -21.0364
   -21.0322 -21.0322 -20.9298 -20.9298 -20.9287 -20.9287 -20.9237 -20.9237
    -4.3989  -4.3989  -2.0571  -2.0571  -0.8937  -0.8937  -0.6430  -0.6430
     0.8551   0.8551   1.1576   1.1576   5.7584   5.7584   6.6515   6.6515
     7.4012   7.4012   8.1190

          k = 0.1667-0.4821-0.0579 ( 16380 PWs)   bands (ev):

   -49.1163 -49.1163 -49.1158 -49.1158 -48.9997 -48.9997 -21.0685 -21.0685
   -21.0560 -21.0560 -21.0534 -21.0534 -21.0440 -21.0440 -21.0354 -21.0354
   -21.0330 -21.0330 -20.9307 -20.9307 -20.9285 -20.9285 -20.9232 -20.9232
    -4.4348  -4.4348  -1.7177  -1.7177  -1.1027  -1.1027  -0.8195  -0.8195
     0.8266   0.8266   1.2055   1.2055   6.0953   6.0953   6.4014   6.4014
     7.1793   7.1793   8.3208

          k = 0.3333 0.0000 0.2315 ( 16398 PWs)   bands (ev):

   -49.1165 -49.1163 -49.1158 -49.1156 -48.9997 -48.9997 -21.0659 -21.0641
   -21.0581 -21.0534 -21.0527 -21.0512 -21.0477 -21.0471 -21.0394 -21.0365
   -21.0327 -21.0326 -20.9328 -20.9294 -20.9292 -20.9286 -20.9233 -20.9207
    -4.6604  -4.3397  -2.0815  -1.7452  -0.8705  -0.8234  -0.5380  -0.4308
     0.6162   0.9078   1.0675   1.3980   5.2453   5.3571   6.6539   6.9928
     7.1545   7.3168   7.4583

          k = 0.3333 0.0000 0.4051 ( 16406 PWs)   bands (ev):

   -49.1165 -49.1163 -49.1158 -49.1156 -48.9997 -48.9997 -21.0664 -21.0622
   -21.0575 -21.0535 -21.0517 -21.0514 -21.0501 -21.0482 -21.0390 -21.0357
   -21.0339 -21.0317 -20.9336 -20.9300 -20.9295 -20.9290 -20.9215 -20.9206
    -4.5725  -4.4332  -2.0067  -1.9146  -0.8700  -0.6211  -0.6190  -0.4486
     0.8029   0.9016   0.9955   1.2969   5.1199   5.5413   6.5201   6.7947
     6.8416   7.4036   7.5162

          k = 0.3333 0.0000-0.1159 ( 16420 PWs)   bands (ev):

   -49.1166 -49.1161 -49.1159 -49.1155 -48.9998 -48.9996 -21.0663 -21.0631
   -21.0579 -21.0572 -21.0532 -21.0506 -21.0488 -21.0471 -21.0367 -21.0361
   -21.0333 -21.0311 -20.9323 -20.9307 -20.9295 -20.9288 -20.9219 -20.9210
    -4.7571  -4.2488  -1.9092  -1.5110  -1.3076  -0.7867  -0.5689  -0.5358
     0.6929   0.9869   1.1358   1.2103   5.2383   6.1941   6.2868   6.5552
     6.6259   7.1306   7.8281

          k = 0.3333 0.0000 0.0578 ( 16403 PWs)   bands (ev):

   -49.1166 -49.1162 -49.1159 -49.1155 -48.9998 -48.9997 -21.0657 -21.0648
   -21.0603 -21.0544 -21.0527 -21.0516 -21.0491 -21.0450 -21.0370 -21.0362
   -21.0331 -21.0315 -20.9315 -20.9301 -20.9287 -20.9287 -20.9238 -20.9211
    -4.7912  -4.2106  -1.8786  -1.3798  -1.3348  -0.9510  -0.6595  -0.4221
     0.5701   0.9725   1.0955   1.3810   5.3420   5.8394   6.2750   6.7035
     7.1483   7.3988   7.4880

          k = 0.3333 0.1607 0.2315 ( 16395 PWs)   bands (ev):

   -49.1164 -49.1163 -49.1158 -49.1157 -48.9997 -48.9997 -21.0677 -21.0632
   -21.0589 -21.0561 -21.0540 -21.0511 -21.0477 -21.0458 -21.0386 -21.0361
   -21.0319 -21.0307 -20.9330 -20.9289 -20.9288 -20.9286 -20.9237 -20.9209
    -4.5912  -4.2993  -1.9942  -1.6990  -1.1681  -0.8143  -0.6940  -0.5739
     0.6750   0.8338   1.1746   1.3540   5.4464   5.6725   6.6243   6.8055
     6.9698   7.2451   7.6693

          k = 0.3333 0.1607 0.4051 ( 16392 PWs)   bands (ev):

   -49.1164 -49.1162 -49.1158 -49.1157 -48.9998 -48.9997 -21.0668 -21.0628
   -21.0579 -21.0553 -21.0531 -21.0516 -21.0500 -21.0483 -21.0377 -21.0354
   -21.0324 -21.0306 -20.9331 -20.9298 -20.9290 -20.9286 -20.9222 -20.9214
    -4.5097  -4.3831  -1.9314  -1.8556  -1.0775  -0.9302  -0.6236  -0.5325
     0.8125   0.9575   1.0735   1.2163   5.4991   5.7068   6.3661   6.7234
     7.0591   7.2537   7.8636

          k = 0.3333 0.1607-0.1159 ( 16390 PWs)   bands (ev):

   -49.1166 -49.1161 -49.1159 -49.1156 -48.9998 -48.9997 -21.0696 -21.0630
   -21.0584 -21.0565 -21.0544 -21.0510 -21.0500 -21.0448 -21.0366 -21.0352
   -21.0322 -21.0301 -20.9331 -20.9301 -20.9291 -20.9283 -20.9228 -20.9208
    -4.6815  -4.2199  -1.8250  -1.4944  -1.3405  -0.9599  -0.7220  -0.6648
     0.8425   0.8656   1.0921   1.1803   5.6246   6.0996   6.2875   6.5106
     7.0965   7.3149   7.6943

          k = 0.3333 0.1607 0.0578 ( 16405 PWs)   bands (ev):

   -49.1166 -49.1162 -49.1159 -49.1156 -48.9998 -48.9997 -21.0700 -21.0643
   -21.0594 -21.0559 -21.0543 -21.0519 -21.0467 -21.0443 -21.0371 -21.0356
   -21.0320 -21.0301 -20.9326 -20.9300 -20.9289 -20.9283 -20.9234 -20.9210
    -4.7137  -4.1868  -1.7972  -1.3750  -1.3286  -1.0904  -0.7761  -0.6294
     0.6689   0.8025   1.1826   1.3025   5.6349   5.9136   6.4047   6.7046
     7.0179   7.3171   7.7112

          k = 0.3333 0.3214 0.2315 ( 16384 PWs)   bands (ev):

   -49.1163 -49.1161 -49.1159 -49.1158 -48.9997 -48.9997 -21.0688 -21.0657
   -21.0599 -21.0580 -21.0553 -21.0530 -21.0477 -21.0459 -21.0346 -21.0338
   -21.0307 -21.0294 -20.9331 -20.9300 -20.9279 -20.9278 -20.9235 -20.9216
    -4.4185  -4.2285  -1.7910  -1.6742  -1.5190  -1.1325  -0.8101  -0.7690
     0.6638   0.7475   1.2242   1.3164   5.9691   6.1719   6.3796   6.8789
     7.2447   7.5244   7.7486

          k = 0.3333 0.3214 0.4051 ( 16387 PWs)   bands (ev):

   -49.1163 -49.1161 -49.1159 -49.1158 -48.9998 -48.9997 -21.0673 -21.0651
   -21.0581 -21.0574 -21.0552 -21.0521 -21.0508 -21.0492 -21.0349 -21.0327
   -21.0306 -21.0298 -20.9319 -20.9295 -20.9282 -20.9277 -20.9234 -20.9229
    -4.3605  -4.2783  -1.7905  -1.7745  -1.4449  -1.2319  -0.7820  -0.7278
     0.7216   1.0024   1.0687   1.2380   6.0622   6.1243   6.4848   6.8657
     7.1716   7.3903   7.6941

          k = 0.3333 0.3214-0.1159 ( 16373 PWs)   bands (ev):

   -49.1164 -49.1161 -49.1159 -49.1157 -48.9998 -48.9997 -21.0715 -21.0675
   -21.0590 -21.0578 -21.0546 -21.0534 -21.0474 -21.0435 -21.0350 -21.0324
   -21.0305 -21.0298 -20.9338 -20.9310 -20.9278 -20.9275 -20.9231 -20.9212
    -4.4857  -4.1877  -1.6594  -1.5733  -1.5543  -0.9661  -0.9458  -0.8567
     0.5811   0.6885   1.1698   1.2235   6.0306   6.2820   6.6154   6.7949
     7.2426   7.6288   7.8879

          k = 0.3333 0.3214 0.0578 ( 16386 PWs)   bands (ev):

   -49.1164 -49.1161 -49.1159 -49.1157 -48.9998 -48.9997 -21.0723 -21.0687
   -21.0593 -21.0576 -21.0553 -21.0540 -21.0441 -21.0422 -21.0352 -21.0331
   -21.0305 -21.0294 -20.9342 -20.9323 -20.9278 -20.9275 -20.9223 -20.9209
    -4.5106  -4.1713  -1.6886  -1.5073  -1.4267  -1.0971  -0.9050  -0.8734
     0.4521   0.6492   1.1963   1.2843   6.0183   6.2037   6.4153   7.0676
     7.2957   7.6347   8.1012

          k = 0.3333-0.4821 0.2315 ( 16402 PWs)   bands (ev):

   -49.1161 -49.1161 -49.1159 -49.1159 -48.9998 -48.9998 -21.0681 -21.0681
   -21.0597 -21.0597 -21.0548 -21.0548 -21.0470 -21.0470 -21.0316 -21.0316
   -21.0305 -21.0305 -20.9320 -20.9320 -20.9275 -20.9275 -20.9225 -20.9225
    -4.2549  -4.2549  -1.7868  -1.7868  -1.3318  -1.3318  -0.9059  -0.9059
     0.6816   0.6816   1.2549   1.2549   6.1926   6.1926   6.6994   6.6994
     7.6383   7.6383   8.1559

          k = 0.3333-0.4821 0.4051 ( 16408 PWs)   bands (ev):

   -49.1161 -49.1161 -49.1160 -49.1160 -48.9998 -48.9998 -21.0670 -21.0670
   -21.0579 -21.0579 -21.0549 -21.0549 -21.0501 -21.0501 -21.0319 -21.0319
   -21.0301 -21.0301 -20.9303 -20.9303 -20.9275 -20.9275 -20.9238 -20.9238
    -4.2466  -4.2466  -1.8359  -1.8359  -1.3201  -1.3201  -0.9110  -0.9110
     0.7906   0.7906   1.2031   1.2031   6.1688   6.1688   6.9010   6.9010
     7.3838   7.3839   8.0742

          k = 0.3333-0.4821-0.1159 ( 16366 PWs)   bands (ev):

   -49.1162 -49.1162 -49.1158 -49.1158 -48.9998 -48.9998 -21.0707 -21.0707
   -21.0591 -21.0591 -21.0550 -21.0550 -21.0443 -21.0443 -21.0319 -21.0319
   -21.0303 -21.0303 -20.9330 -20.9330 -20.9271 -20.9271 -20.9222 -20.9222
    -4.2744  -4.2744  -1.7470  -1.7470  -1.2420  -1.2420  -0.8890  -0.8890
     0.4809   0.4809   1.2332   1.2332   6.1302   6.1302   7.1119   7.1119
     7.4952   7.4952   8.3689

          k = 0.3333-0.4821 0.0578 ( 16368 PWs)   bands (ev):

   -49.1162 -49.1162 -49.1158 -49.1158 -48.9998 -48.9998 -21.0718 -21.0718
   -21.0592 -21.0592 -21.0555 -21.0555 -21.0422 -21.0422 -21.0314 -21.0314
   -21.0308 -21.0308 -20.9342 -20.9342 -20.9272 -20.9272 -20.9213 -20.9213
    -4.2823  -4.2823  -1.7147  -1.7147  -1.1666  -1.1666  -0.9606  -0.9606
     0.4173   0.4173   1.2459   1.2459   6.0895   6.0895   7.0352   7.0352
     7.7906   7.7906   8.3845

          k =-0.5000 0.0000-0.3472 ( 16388 PWs)   bands (ev):

   -49.1163 -49.1161 -49.1160 -49.1158 -48.9997 -48.9997 -21.0665 -21.0626
   -21.0558 -21.0522 -21.0514 -21.0501 -21.0493 -21.0490 -21.0428 -21.0357
   -21.0354 -21.0323 -20.9344 -20.9304 -20.9285 -20.9281 -20.9215 -20.9203
    -4.3989  -4.3721  -2.2723  -2.2099  -0.8044  -0.5453  -0.5134  -0.3919
     0.6447   0.8946   1.0078   1.2991   5.0764   5.2109   6.5691   6.6343
     7.1818   7.5513   8.0425

          k =-0.5000 0.0000-0.1735 ( 16398 PWs)   bands (ev):

   -49.1163 -49.1162 -49.1158 -49.1158 -48.9997 -48.9997 -21.0662 -21.0618
   -21.0599 -21.0542 -21.0521 -21.0505 -21.0485 -21.0477 -21.0392 -21.0362
   -21.0344 -21.0326 -20.9331 -20.9300 -20.9284 -20.9282 -20.9222 -20.9211
    -4.4243  -4.4062  -2.0795  -2.0172  -0.9366  -0.7619  -0.6109  -0.4704
     0.7269   0.9677   0.9754   1.2608   5.2915   5.4668   6.7198   7.0017
     7.0482   7.2197   7.4130

          k =-0.5000 0.0000-0.6945 ( 16416 PWs)   bands (ev):

   -49.1163 -49.1163 -49.1157 -49.1157 -48.9997 -48.9997 -21.0643 -21.0643
   -21.0587 -21.0587 -21.0520 -21.0520 -21.0466 -21.0466 -21.0366 -21.0366
   -21.0334 -21.0334 -20.9307 -20.9307 -20.9282 -20.9282 -20.9226 -20.9226
    -4.4432  -4.4432  -1.7478  -1.7478  -1.1770  -1.1770  -0.5761  -0.5761
     0.8646   0.8646   1.1368   1.1368   5.8746   5.8746   6.2663   6.2663
     7.0880   7.0880   7.9480

          k =-0.5000 0.1607-0.3472 ( 16400 PWs)   bands (ev):

   -49.1163 -49.1161 -49.1160 -49.1158 -48.9998 -48.9997 -21.0665 -21.0639
   -21.0571 -21.0560 -21.0524 -21.0506 -21.0501 -21.0499 -21.0383 -21.0339
   -21.0338 -21.0312 -20.9339 -20.9302 -20.9279 -20.9278 -20.9222 -20.9211
    -4.3476  -4.3233  -2.1730  -2.1166  -0.9473  -0.7356  -0.6965  -0.6128
     0.6542   0.9109   1.1574   1.2354   5.3859   5.4787   6.4090   6.9450
     7.3303   7.7751   7.8132

          k =-0.5000 0.1607-0.1735 ( 16399 PWs)   bands (ev):

   -49.1163 -49.1162 -49.1158 -49.1158 -48.9997 -48.9997 -21.0685 -21.0635
   -21.0595 -21.0560 -21.0545 -21.0520 -21.0479 -21.0455 -21.0373 -21.0346
   -21.0327 -21.0315 -20.9337 -20.9300 -20.9279 -20.9277 -20.9231 -20.9208
    -4.3709  -4.3543  -2.0016  -1.9400  -1.0381  -0.8603  -0.7664  -0.6683
     0.6615   0.8411   1.1197   1.2466   5.5841   5.7387   6.5627   6.7225
     7.2645   7.3487   7.8954

          k =-0.5000 0.1607-0.6945 ( 16394 PWs)   bands (ev):

   -49.1163 -49.1163 -49.1158 -49.1158 -48.9997 -48.9997 -21.0679 -21.0679
   -21.0575 -21.0575 -21.0538 -21.0538 -21.0452 -21.0452 -21.0353 -21.0353
   -21.0320 -21.0320 -20.9320 -20.9320 -20.9277 -20.9277 -20.9220 -20.9220
    -4.3883  -4.3883  -1.7207  -1.7207  -1.1423  -1.1423  -0.7884  -0.7884
     0.7609   0.7609   1.1478   1.1478   6.0351   6.0351   6.3554   6.3554
     7.2721   7.2721   8.1855

          k =-0.5000 0.3214-0.3472 ( 16406 PWs)   bands (ev):

   -49.1162 -49.1161 -49.1160 -49.1159 -48.9998 -48.9997 -21.0674 -21.0667
   -21.0588 -21.0583 -21.0544 -21.0530 -21.0510 -21.0509 -21.0327 -21.0309
   -21.0307 -21.0297 -20.9325 -20.9299 -20.9273 -20.9268 -20.9234 -20.9229
    -4.2324  -4.2165  -1.8921  -1.8517  -1.2896  -1.2050  -1.0048  -0.9791
     0.6712   1.0368   1.0412   1.2914   5.8573   6.2444   6.4461   7.0182
     7.5289   7.7786   7.7911

          k =-0.5000 0.3214-0.1735 ( 16373 PWs)   bands (ev):

   -49.1162 -49.1162 -49.1159 -49.1158 -48.9998 -48.9997 -21.0706 -21.0683
   -21.0600 -21.0593 -21.0556 -21.0539 -21.0472 -21.0446 -21.0327 -21.0316
   -21.0301 -21.0297 -20.9344 -20.9314 -20.9270 -20.9268 -20.9231 -20.9211
    -4.2506  -4.2396  -1.8341  -1.7674  -1.3157  -1.1969  -0.9224  -0.8873
     0.4903   0.6221   1.2336   1.2487   6.0408   6.1236   6.6040   7.0633
     7.3434   7.9389   8.3870

          k =-0.5000 0.3214-0.6945 ( 16394 PWs)   bands (ev):

   -49.1163 -49.1163 -49.1158 -49.1158 -48.9998 -48.9998 -21.0719 -21.0719
   -21.0594 -21.0594 -21.0555 -21.0555 -21.0426 -21.0426 -21.0322 -21.0322
   -21.0298 -21.0298 -20.9344 -20.9344 -20.9268 -20.9268 -20.9211 -20.9211
    -4.2649  -4.2649  -1.7655  -1.7655  -1.0638  -1.0638  -0.9917  -0.9917
     0.3806   0.3806   1.2033   1.2033   6.0770   6.0770   6.9785   6.9785
     7.8372   7.8372   8.4684

          k =-0.5000-0.4821-0.3472 ( 16420 PWs)   bands (ev):

   -49.1161 -49.1161 -49.1160 -49.1160 -48.9998 -48.9998 -21.0683 -21.0683
   -21.0578 -21.0578 -21.0559 -21.0559 -21.0512 -21.0512 -21.0300 -21.0300
   -21.0293 -21.0293 -20.9307 -20.9307 -20.9269 -20.9269 -20.9238 -20.9238
    -4.1620  -4.1620  -1.5450  -1.5450  -1.4596  -1.4596  -1.3298  -1.3298
     0.8189   0.8189   1.2100   1.2100   6.3485   6.3485   6.5675   6.5675
     7.9644   7.9644   8.3384

          k =-0.5000-0.4821-0.1735 ( 16384 PWs)   bands (ev):

   -49.1162 -49.1162 -49.1159 -49.1159 -48.9998 -48.9998 -21.0708 -21.0708
   -21.0607 -21.0607 -21.0554 -21.0554 -21.0456 -21.0456 -21.0300 -21.0300
   -21.0293 -21.0293 -20.9335 -20.9335 -20.9265 -20.9265 -20.9220 -20.9220
    -4.1782  -4.1782  -1.7661  -1.7661  -1.2143  -1.2143  -1.1374  -1.1374
     0.4760   0.4760   1.2436   1.2436   6.1216   6.1216   7.1113   7.1113
     8.0945   8.0946   8.4824

          k =-0.5000-0.4821-0.6945 ( 16352 PWs)   bands (ev):

   -49.1162 -49.1162 -49.1158 -49.1158 -48.9998 -48.9998 -21.0733 -21.0733
   -21.0606 -21.0606 -21.0563 -21.0563 -21.0416 -21.0416 -21.0301 -21.0301
   -21.0293 -21.0293 -20.9356 -20.9356 -20.9264 -20.9264 -20.9207 -20.9207
    -4.1941  -4.1941  -1.8625  -1.8625  -1.0107  -1.0107  -0.9725  -0.9725
     0.1509   0.1509   1.2047   1.2047   6.0660   6.0660   7.5125   7.5125
     8.2630   8.2630   8.4829

     the Fermi energy is     3.1935 ev

!    total energy              =    -665.33746349 Ry
     estimated scf accuracy    <          3.1E-09 Ry
     smearing contrib. (-TS)   =       0.00000000 Ry
     internal energy E=F+TS    =    -665.33746349 Ry

     The total energy is F=E-TS. E is the sum of the following terms:
     one-electron contribution =    -481.97996298 Ry
     hartree contribution      =     254.78207388 Ry
     xc contribution           =    -100.22940089 Ry
     ewald contribution        =    -268.57364766 Ry
     one-center paw contrib.   =     -69.33652584 Ry

     convergence has been achieved in   9 iterations

     Forces acting on atoms (cartesian axes, Ry/au):

     atom    1 type  3   force =     0.00000000    0.00000000    0.00000000
     atom    2 type  3   force =     0.00000000    0.00000000    0.00000000
     atom    3 type  1   force =    -0.00000000   -0.00000000    0.00000000
     atom    4 type  1   force =     0.00000000   -0.00000000    0.00000000
     atom    5 type  1   force =    -0.00045263    0.00044515    0.00033173
     atom    6 type  1   force =     0.00045263   -0.00044515   -0.00033173
     atom    7 type  1   force =     0.00045263    0.00044515   -0.00033173
     atom    8 type  1   force =    -0.00045263   -0.00044515    0.00033173
     atom    9 type  2   force =    -0.00090884    0.00190194    0.00069403
     atom   10 type  2   force =     0.00090884   -0.00190194   -0.00069403
     atom   11 type  2   force =     0.00090884    0.00190194   -0.00069403
     atom   12 type  2   force =    -0.00090884   -0.00190194    0.00069403
     atom   13 type  2   force =     0.00194807   -0.00124865   -0.00040326
     atom   14 type  2   force =    -0.00194807    0.00124865    0.00040326
     atom   15 type  2   force =    -0.00194807   -0.00124865    0.00040326
     atom   16 type  2   force =     0.00194807    0.00124865   -0.00040326
     atom   17 type  2   force =    -0.00088327   -0.00008422   -0.00228624
     atom   18 type  2   force =     0.00088327    0.00008422    0.00228624
     atom   19 type  2   force =     0.00088327   -0.00008422    0.00228624
     atom   20 type  2   force =    -0.00088327    0.00008422   -0.00228624

     Total force =     0.008239     Total SCF correction =     0.000022


     Computing stress (Cartesian axis) and pressure

          total   stress  (Ry/bohr**3)                   (kbar)     P=       14.99
   0.00010177   0.00000000   0.00000018           14.97        0.00        0.03
   0.00000000   0.00010084   0.00000000            0.00       14.83        0.00
   0.00000018   0.00000000   0.00010302            0.03        0.00       15.15


     Writing output data file ./Na3AlH6_experimental.save/

     init_run     :     59.24s CPU     21.70s WALL (       1 calls)
     electrons    :   2064.26s CPU    493.21s WALL (       1 calls)
     forces       :     26.29s CPU      6.20s WALL (       1 calls)
     stress       :    211.80s CPU     58.96s WALL (       1 calls)

     Called by init_run:
     wfcinit      :     54.35s CPU     17.59s WALL (       1 calls)
     potinit      :      1.42s CPU      1.46s WALL (       1 calls)
     hinit0       :      1.79s CPU      1.82s WALL (       1 calls)

     Called by electrons:
     c_bands      :   1800.75s CPU    406.71s WALL (       9 calls)
     sum_band     :    248.24s CPU     76.36s WALL (       9 calls)
     v_of_rho     :      1.99s CPU      2.13s WALL (      10 calls)
     newd         :     12.36s CPU      6.64s WALL (      10 calls)
     PAW_pot      :      1.71s CPU      1.71s WALL (      10 calls)
     mix_rho      :      0.31s CPU      0.32s WALL (       9 calls)

     Called by c_bands:
     init_us_2    :     53.94s CPU     14.09s WALL (    1176 calls)
     cegterg      :   1642.79s CPU    361.76s WALL (     504 calls)

     Called by *egterg:
     cdiaghg      :     41.29s CPU      6.84s WALL (    2560 calls)
     h_psi        :    922.63s CPU    292.00s WALL (    2616 calls)
     s_psi        :    158.75s CPU     12.14s WALL (    2616 calls)
     g_psi        :     39.73s CPU      9.09s WALL (    2056 calls)

     Called by h_psi:
     h_psi:calbec :    128.07s CPU     12.37s WALL (    2616 calls)
     vloc_psi     :    533.46s CPU    251.77s WALL (    2616 calls)
     add_vuspsi   :    231.98s CPU     16.42s WALL (    2616 calls)

     General routines
     calbec       :    177.22s CPU     16.62s WALL (    3400 calls)
     fft          :      2.30s CPU      2.07s WALL (     153 calls)
     ffts         :      0.12s CPU      0.06s WALL (      19 calls)
     fftw         :    524.36s CPU    256.21s WALL (  139812 calls)
     interpolate  :      0.34s CPU      0.34s WALL (      10 calls)

     Parallel routines

     PWSCF        :  39m21.93s CPU   9m40.97s WALL


   This run was terminated on:  13:13:15  24Oct2023            

=------------------------------------------------------------------------------=
   JOB DONE.
=------------------------------------------------------------------------------=
