
     Program PWSCF v.6.7MaX starts on 24Oct2023 at 21:53:33 

     This program is part of the open-source Quantum ESPRESSO suite
     for quantum simulation of materials; please cite
         "P. Giannozzi et al., J. Phys.:Condens. Matter 21 395502 (2009);
         "P. Giannozzi et al., J. Phys.:Condens. Matter 29 465901 (2017);
          URL http://www.quantum-espresso.org", 
     in publications or presentations arising from this work. More details at
     http://www.quantum-espresso.org/quote

     Parallel version (MPI), running on     1 processors

     MPI processes distributed on     1 nodes
     Reading input from Na5Al3H14_experimental.in

     Current dimensions of program PWSCF are:
     Max number of different atomic species (ntypx) = 10
     Max number of k-points (npk) =  40000
     Max angular momentum in pseudopotentials (lmaxx) =  3
     file Al.pbe-n-kjpaw_psl.1.0.0.UPF: wavefunction(s)  3S 3P renormalized

     IMPORTANT: XC functional enforced from input :
     Exchange-correlation= PBE
                           (   1   4   3   4   0   0   0)
     Any further DFT definition will be discarded
     Please, verify this is what you really want


     Subspace diagonalization in iterative solution of the eigenvalue problem:
     a serial algorithm will be used

     Message from routine setup:
     using ibrav=0 with symmetry is DISCOURAGED, use correct ibrav instead

     G-vector sticks info
     --------------------
     sticks:   dense  smooth     PW     G-vecs:    dense   smooth      PW
     Sum        4725    3793   1041               375859   269139   38367



     bravais-lattice index     =            0
     lattice parameter (alat)  =      12.6114  a.u.
     unit-cell volume          =    3067.3055 (a.u.)^3
     number of atoms/cell      =           44
     number of atomic types    =            3
     number of electrons       =       136.00
     number of Kohn-Sham states=           82
     kinetic-energy cutoff     =      75.0000  Ry
     charge density cutoff     =     375.0000  Ry
     scf convergence threshold =      1.0E-08
     mixing beta               =       0.7000
     number of iterations used =            8  plain     mixing
     Exchange-correlation= PBE
                           (   1   4   3   4   0   0   0)

     celldm(1)=  12.611352  celldm(2)=   0.000000  celldm(3)=   0.000000
     celldm(4)=   0.000000  celldm(5)=   0.000000  celldm(6)=   0.000000

     crystal axes: (cart. coord. in units of alat)
               a(1) = (   1.000000   0.000000   0.000000 )  
               a(2) = (   0.000000   1.000000   0.000000 )  
               a(3) = (   0.000000   0.000000   1.529227 )  

     reciprocal axes: (cart. coord. in units 2 pi/alat)
               b(1) = (  1.000000  0.000000  0.000000 )  
               b(2) = (  0.000000  1.000000  0.000000 )  
               b(3) = (  0.000000  0.000000  0.653925 )  


     PseudoPot. # 1 for H  read from file:
     ../../pseudopotentials/H.pbe-rrkjus_psl.1.0.0.UPF
     MD5 check sum: f52b6d4d1c606e5624b1dc7b2218f220
     Pseudo is Ultrasoft, Zval =  1.0
     Generated using "atomic" code by A. Dal Corso  v.5.1
     Using radial grid of  929 points,  2 beta functions with: 
                l(1) =   0
                l(2) =   0
     Q(r) pseudized with 0 coefficients 


     PseudoPot. # 2 for Na read from file:
     ../../pseudopotentials/na_pbe_v1.5.uspp.F.UPF
     MD5 check sum: 44600605ef58000f06b90626533354dc
     Pseudo is Ultrasoft, Zval =  9.0
     Generated by new atomic code, or converted to UPF format
     Using radial grid of  819 points,  5 beta functions with: 
                l(1) =   0
                l(2) =   0
                l(3) =   1
                l(4) =   1
                l(5) =   2
     Q(r) pseudized with  8 coefficients,  rinner =    1.250   1.250   1.250
                                                       1.250   1.250

     PseudoPot. # 3 for Al read from file:
     ../../pseudopotentials/Al.pbe-n-kjpaw_psl.1.0.0.UPF
     MD5 check sum: cfc449ca30b5f3223ec38ddd88ac046d
     Pseudo is Projector augmented-wave + core cor, Zval =  3.0
     Generated using "atomic" code by A. Dal Corso  v.5.1
     Shape of augmentation charge: PSQ
     Using radial grid of 1135 points,  6 beta functions with: 
                l(1) =   0
                l(2) =   0
                l(3) =   1
                l(4) =   1
                l(5) =   2
                l(6) =   2
     Q(r) pseudized with 0 coefficients 


     atomic species   valence    mass     pseudopotential
        H              1.00     1.00750     H ( 1.00)
        Na             9.00    22.98900     Na( 1.00)
        Al             3.00    26.98100     Al( 1.00)

     16 Sym. Ops., with inversion, found ( 8 have fractional translation)



   Cartesian axes

     site n.     atom                  positions (alat units)
         1           Al  tau(   1) = (   0.0000000   0.0000000   0.7646137  )
         2           Al  tau(   2) = (   0.5000000   0.5000000   0.0000000  )
         3           Al  tau(   3) = (   0.0000000   0.5000000   0.0000000  )
         4           Al  tau(   4) = (   0.5000000   0.0000000   0.7646137  )
         5           Al  tau(   5) = (   0.0000000   0.5000000   0.7646137  )
         6           Al  tau(   6) = (   0.5000000   0.0000000   0.0000000  )
         7           Na  tau(   7) = (   0.0000000   0.0000000   0.0000000  )
         8           Na  tau(   8) = (   0.5000000   0.5000000   0.7646137  )
         9           Na  tau(   9) = (   0.7873500   0.2873500   0.3823069  )
        10           Na  tau(  10) = (   0.7126500   0.7873500   0.3823069  )
        11           Na  tau(  11) = (   0.2126500   0.7126500   0.3823069  )
        12           Na  tau(  12) = (   0.7126500   0.7873500   1.1469206  )
        13           Na  tau(  13) = (   0.2126500   0.7126500   1.1469206  )
        14           Na  tau(  14) = (   0.2873500   0.2126500   0.3823069  )
        15           Na  tau(  15) = (   0.2873500   0.2126500   1.1469206  )
        16           Na  tau(  16) = (   0.7873500   0.2873500   1.1469206  )
        17           H   tau(  17) = (   0.0438000   0.3200500   0.1796995  )
        18           H   tau(  18) = (   0.4562000   0.8200500   0.5849142  )
        19           H   tau(  19) = (   0.1799500   0.4562000   0.5849142  )
        20           H   tau(  20) = (   0.4562000   0.8200500   0.9443133  )
        21           H   tau(  21) = (   0.1799500   0.4562000   0.9443133  )
        22           H   tau(  22) = (   0.9562000   0.6799500   0.1796995  )
        23           H   tau(  23) = (   0.3200500   0.9562000   0.1796995  )
        24           H   tau(  24) = (   0.9562000   0.6799500   1.3495280  )
        25           H   tau(  25) = (   0.3200500   0.9562000   1.3495280  )
        26           H   tau(  26) = (   0.6799500   0.0438000   0.1796995  )
        27           H   tau(  27) = (   0.0438000   0.3200500   1.3495280  )
        28           H   tau(  28) = (   0.6799500   0.0438000   1.3495280  )
        29           H   tau(  29) = (   0.5438000   0.1799500   0.5849142  )
        30           H   tau(  30) = (   0.8200500   0.5438000   0.5849142  )
        31           H   tau(  31) = (   0.5438000   0.1799500   0.9443133  )
        32           H   tau(  32) = (   0.8200500   0.5438000   0.9443133  )
        33           H   tau(  33) = (   0.0000000   0.0000000   0.5038652  )
        34           H   tau(  34) = (   0.5000000   0.5000000   0.2607486  )
        35           H   tau(  35) = (   0.5000000   0.5000000   1.2684789  )
        36           H   tau(  36) = (   0.0000000   0.0000000   1.0253623  )
        37           H   tau(  37) = (   0.2523700   0.5751200   0.0000000  )
        38           H   tau(  38) = (   0.2476300   0.0751200   0.7646137  )
        39           H   tau(  39) = (   0.9248800   0.2476300   0.7646137  )
        40           H   tau(  40) = (   0.7476300   0.4248800   0.0000000  )
        41           H   tau(  41) = (   0.5751200   0.7476300   0.0000000  )
        42           H   tau(  42) = (   0.4248800   0.2523700   0.0000000  )
        43           H   tau(  43) = (   0.7523700   0.9248800   0.7646137  )
        44           H   tau(  44) = (   0.0751200   0.7523700   0.7646137  )

     number of k points=    30  Marzari-Vanderbilt smearing, width (Ry)=  0.0050
                       cart. coord. in units 2pi/alat
        k(    1) = (   0.0000000   0.0000000   0.0000000), wk =   0.0138889
        k(    2) = (   0.0000000   0.0000000   0.1634812), wk =   0.0277778
        k(    3) = (   0.0000000   0.0000000  -0.3269625), wk =   0.0138889
        k(    4) = (   0.0000000   0.1666667   0.0000000), wk =   0.0555556
        k(    5) = (   0.0000000   0.1666667   0.1634812), wk =   0.1111111
        k(    6) = (   0.0000000   0.1666667  -0.3269625), wk =   0.0555556
        k(    7) = (   0.0000000   0.3333333   0.0000000), wk =   0.0555556
        k(    8) = (   0.0000000   0.3333333   0.1634812), wk =   0.1111111
        k(    9) = (   0.0000000   0.3333333  -0.3269625), wk =   0.0555556
        k(   10) = (   0.0000000  -0.5000000   0.0000000), wk =   0.0277778
        k(   11) = (   0.0000000  -0.5000000   0.1634812), wk =   0.0555556
        k(   12) = (   0.0000000  -0.5000000  -0.3269625), wk =   0.0277778
        k(   13) = (   0.1666667   0.1666667   0.0000000), wk =   0.0555556
        k(   14) = (   0.1666667   0.1666667   0.1634812), wk =   0.1111111
        k(   15) = (   0.1666667   0.1666667  -0.3269625), wk =   0.0555556
        k(   16) = (   0.1666667   0.3333333   0.0000000), wk =   0.1111111
        k(   17) = (   0.1666667   0.3333333   0.1634812), wk =   0.2222222
        k(   18) = (   0.1666667   0.3333333  -0.3269625), wk =   0.1111111
        k(   19) = (   0.1666667  -0.5000000   0.0000000), wk =   0.0555556
        k(   20) = (   0.1666667  -0.5000000   0.1634812), wk =   0.1111111
        k(   21) = (   0.1666667  -0.5000000  -0.3269625), wk =   0.0555556
        k(   22) = (   0.3333333   0.3333333   0.0000000), wk =   0.0555556
        k(   23) = (   0.3333333   0.3333333   0.1634812), wk =   0.1111111
        k(   24) = (   0.3333333   0.3333333  -0.3269625), wk =   0.0555556
        k(   25) = (   0.3333333  -0.5000000   0.0000000), wk =   0.0555556
        k(   26) = (   0.3333333  -0.5000000   0.1634812), wk =   0.1111111
        k(   27) = (   0.3333333  -0.5000000  -0.3269625), wk =   0.0555556
        k(   28) = (  -0.5000000  -0.5000000   0.0000000), wk =   0.0138889
        k(   29) = (  -0.5000000  -0.5000000   0.1634812), wk =   0.0277778
        k(   30) = (  -0.5000000  -0.5000000  -0.3269625), wk =   0.0138889

     Dense  grid:   375859 G-vectors     FFT dimensions: (  80,  80, 120)

     Smooth grid:   269139 G-vectors     FFT dimensions: (  72,  72, 108)

     Estimated max dynamical RAM per process >       3.16 GB

     Initial potential from superposition of free atoms

     starting charge  135.92309, renormalised to  136.00000
     Starting wfcs are  102 randomized atomic wfcs
     Checking if some PAW data can be deallocated... 

     total cpu time spent up to now is       53.1 secs

     Self-consistent Calculation

     iteration #  1     ecut=    75.00 Ry     beta= 0.70
     Davidson diagonalization with overlap
     ethr =  1.00E-02,  avg # of iterations =  5.5

     total cpu time spent up to now is      190.9 secs

     total energy              =   -1223.45185656 Ry
     estimated scf accuracy    <       1.96917977 Ry

     iteration #  2     ecut=    75.00 Ry     beta= 0.70
     Davidson diagonalization with overlap
     ethr =  1.45E-03,  avg # of iterations =  2.2

     total cpu time spent up to now is      305.1 secs

     total energy              =   -1223.62560421 Ry
     estimated scf accuracy    <       0.04190534 Ry

     iteration #  3     ecut=    75.00 Ry     beta= 0.70
     Davidson diagonalization with overlap
     ethr =  3.08E-05,  avg # of iterations = 11.5

     total cpu time spent up to now is      492.3 secs

     total energy              =   -1223.63852272 Ry
     estimated scf accuracy    <       0.00407055 Ry

     iteration #  4     ecut=    75.00 Ry     beta= 0.70
     Davidson diagonalization with overlap
     ethr =  2.99E-06,  avg # of iterations =  4.3

     total cpu time spent up to now is      619.1 secs

     total energy              =   -1223.63951535 Ry
     estimated scf accuracy    <       0.00027172 Ry

     iteration #  5     ecut=    75.00 Ry     beta= 0.70
     Davidson diagonalization with overlap
     ethr =  2.00E-07,  avg # of iterations =  2.7

     total cpu time spent up to now is      738.4 secs

     total energy              =   -1223.63957525 Ry
     estimated scf accuracy    <       0.00002017 Ry

     iteration #  6     ecut=    75.00 Ry     beta= 0.70
     Davidson diagonalization with overlap
     ethr =  1.48E-08,  avg # of iterations =  3.6

     total cpu time spent up to now is      862.0 secs

     total energy              =   -1223.63957880 Ry
     estimated scf accuracy    <       0.00000324 Ry

     iteration #  7     ecut=    75.00 Ry     beta= 0.70
     Davidson diagonalization with overlap
     ethr =  2.38E-09,  avg # of iterations =  2.0

     total cpu time spent up to now is      978.7 secs

     total energy              =   -1223.63957921 Ry
     estimated scf accuracy    <       0.00000008 Ry

     iteration #  8     ecut=    75.00 Ry     beta= 0.70
     Davidson diagonalization with overlap
     ethr =  6.24E-11,  avg # of iterations =  4.6

     total cpu time spent up to now is     1131.1 secs

     total energy              =   -1223.63957925 Ry
     estimated scf accuracy    <       0.00000004 Ry

     iteration #  9     ecut=    75.00 Ry     beta= 0.70
     Davidson diagonalization with overlap
     ethr =  2.99E-11,  avg # of iterations =  2.0

     total cpu time spent up to now is     1245.6 secs

     End of self-consistent calculation

          k = 0.0000 0.0000 0.0000 ( 33673 PWs)   bands (ev):

   -49.2091 -49.2091 -48.9020 -48.9020 -48.8992 -48.8992 -48.8992 -48.8992
   -48.8966 -48.8966 -21.1567 -21.1541 -21.1201 -21.1201 -21.1188 -21.1188
   -20.8753 -20.8741 -20.8611 -20.8611 -20.8610 -20.8610 -20.8609 -20.8606
   -20.8271 -20.8259 -20.8255 -20.8240 -20.8220 -20.8220 -20.8220 -20.8220
   -20.8031 -20.8031 -20.8029 -20.8029 -20.8013 -20.8009 -20.7998 -20.7998
    -6.1150  -5.8057  -4.1024  -3.8516  -2.7681  -2.6266  -2.6174  -2.5039
    -2.5039  -2.3281  -2.3281  -1.1234  -1.0139  -0.8323  -0.8323  -0.7335
    -0.6553  -0.6553  -0.2534  -0.1152   0.3221   0.7124   0.7124   0.9209
     1.1659   1.3816   1.3816   1.6210   4.4992   5.3372   6.3490   6.3490
     6.4029   6.5168   6.5852   7.0336   7.0336   7.0469   7.1639   7.2422
     7.2422   7.5327

          k = 0.0000 0.0000 0.1635 ( 33689 PWs)   bands (ev):

   -49.2091 -49.2091 -48.9020 -48.9020 -48.8992 -48.8992 -48.8992 -48.8992
   -48.8966 -48.8966 -21.1563 -21.1545 -21.1199 -21.1199 -21.1190 -21.1190
   -20.8751 -20.8743 -20.8611 -20.8611 -20.8610 -20.8610 -20.8609 -20.8607
   -20.8267 -20.8258 -20.8255 -20.8244 -20.8220 -20.8220 -20.8220 -20.8220
   -20.8031 -20.8031 -20.8029 -20.8029 -20.8013 -20.8010 -20.7998 -20.7998
    -6.0754  -5.8579  -4.0702  -3.8937  -2.7953  -2.6682  -2.4793  -2.4793
    -2.3937  -2.3550  -2.3550  -1.3754  -0.8962  -0.8152  -0.8152  -0.7417
    -0.6933  -0.6933  -0.3471  -0.2719   0.6479   0.8234   0.8234   0.9786
     1.1426   1.2939   1.2939   1.5047   4.6187   5.3260   6.2904   6.2904
     6.2958   6.5313   6.5877   6.6354   6.6354   6.9615   7.3081   7.7530
     7.7685   7.7686

          k = 0.0000 0.0000-0.3270 ( 33734 PWs)   bands (ev):

   -49.2091 -49.2091 -48.9020 -48.9020 -48.8992 -48.8992 -48.8992 -48.8992
   -48.8966 -48.8966 -21.1554 -21.1554 -21.1194 -21.1194 -21.1194 -21.1194
   -20.8747 -20.8747 -20.8611 -20.8611 -20.8611 -20.8611 -20.8608 -20.8608
   -20.8257 -20.8257 -20.8256 -20.8256 -20.8220 -20.8220 -20.8220 -20.8220
   -20.8030 -20.8030 -20.8030 -20.8030 -20.8011 -20.8011 -20.7998 -20.7998
    -5.9729  -5.9729  -3.9868  -3.9868  -2.7504  -2.7504  -2.4184  -2.4184
    -2.4184  -2.4184  -1.9222  -1.9222  -0.7640  -0.7640  -0.7640  -0.7640
    -0.6008  -0.6008  -0.5599  -0.5599   1.0695   1.0695   1.0695   1.0695
     1.0751   1.0751   1.1522   1.1522   4.9797   4.9797   6.3415   6.3415
     6.3415   6.3415   6.4656   6.4656   6.7683   6.7683   7.3321   7.3321
     8.1360   8.1360

          k = 0.0000 0.1667 0.0000 ( 33695 PWs)   bands (ev):

   -49.2091 -49.2091 -48.9018 -48.9018 -48.8994 -48.8994 -48.8990 -48.8990
   -48.8968 -48.8968 -21.1565 -21.1543 -21.1200 -21.1200 -21.1189 -21.1188
   -20.8737 -20.8726 -20.8619 -20.8619 -20.8604 -20.8603 -20.8557 -20.8556
   -20.8273 -20.8269 -20.8264 -20.8234 -20.8231 -20.8230 -20.8213 -20.8213
   -20.8064 -20.8063 -20.8031 -20.8029 -20.8028 -20.8027 -20.8004 -20.8003
    -6.0436  -5.7457  -4.2779  -4.0221  -3.1118  -2.9897  -2.5461  -2.4574
    -2.3028  -1.8578  -1.7189  -1.2242  -1.0334  -0.9348  -0.8908  -0.7601
    -0.7320  -0.7230  -0.3214  -0.1710   0.4076   0.7549   0.8270   0.9053
     1.1404   1.3708   1.3784   1.5560   4.7156   5.5146   6.3052   6.3382
     6.3461   6.3698   6.7605   6.7642   6.9520   7.0359   7.1717   7.2436
     7.3131   7.5851

          k = 0.0000 0.1667 0.1635 ( 33667 PWs)   bands (ev):

   -49.2091 -49.2091 -48.9018 -48.9018 -48.8994 -48.8994 -48.8990 -48.8990
   -48.8968 -48.8968 -21.1562 -21.1546 -21.1199 -21.1198 -21.1190 -21.1190
   -20.8736 -20.8728 -20.8619 -20.8619 -20.8604 -20.8603 -20.8557 -20.8557
   -20.8273 -20.8270 -20.8259 -20.8239 -20.8231 -20.8230 -20.8213 -20.8213
   -20.8064 -20.8063 -20.8031 -20.8029 -20.8028 -20.8027 -20.8004 -20.8003
    -6.0052  -5.7955  -4.2457  -4.0657  -3.1111  -3.0180  -2.4353  -2.3625
    -2.3254  -1.8341  -1.7515  -1.3783  -1.0207  -0.9246  -0.8554  -0.8132
    -0.7868  -0.6824  -0.3690  -0.3230   0.6368   0.8426   0.9515   0.9632
     1.1216   1.2204   1.2976   1.5383   4.8254   5.4985   6.1728   6.2462
     6.3079   6.4349   6.6916   6.7114   6.7992   6.8539   7.2562   7.2769
     7.5294   7.9143

          k = 0.0000 0.1667-0.3270 ( 33654 PWs)   bands (ev):

   -49.2091 -49.2091 -48.9018 -48.9018 -48.8994 -48.8994 -48.8990 -48.8990
   -48.8968 -48.8968 -21.1554 -21.1554 -21.1194 -21.1194 -21.1194 -21.1194
   -20.8732 -20.8732 -20.8619 -20.8619 -20.8603 -20.8603 -20.8557 -20.8557
   -20.8271 -20.8271 -20.8249 -20.8249 -20.8230 -20.8230 -20.8213 -20.8213
   -20.8064 -20.8064 -20.8030 -20.8030 -20.8028 -20.8028 -20.8004 -20.8004
    -5.9060  -5.9060  -4.1612  -4.1612  -3.0758  -3.0758  -2.3810  -2.3810
    -1.9416  -1.9416  -1.7505  -1.7505  -0.9137  -0.9137  -0.8582  -0.8582
    -0.6670  -0.6670  -0.4927  -0.4927   0.9325   0.9325   1.0283   1.0283
     1.0904   1.0904   1.3263   1.3263   5.1533   5.1533   6.2156   6.2156
     6.4066   6.4066   6.5627   6.5627   6.8130   6.8130   7.2199   7.2199
     7.9184   7.9184

          k = 0.0000 0.3333 0.0000 ( 33637 PWs)   bands (ev):

   -49.2091 -49.2091 -48.9013 -48.9013 -48.8999 -48.8999 -48.8985 -48.8985
   -48.8973 -48.8973 -21.1560 -21.1547 -21.1198 -21.1198 -21.1192 -21.1191
   -20.8706 -20.8698 -20.8641 -20.8640 -20.8531 -20.8529 -20.8463 -20.8461
   -20.8323 -20.8320 -20.8269 -20.8267 -20.8241 -20.8218 -20.8191 -20.8191
   -20.8138 -20.8134 -20.8090 -20.8089 -20.8023 -20.8022 -20.8009 -20.8008
    -5.8445  -5.6054  -4.6518  -4.4336  -3.2203  -3.1484  -2.3458  -2.3374
    -2.2439  -1.6031  -1.2686  -1.1458  -1.1435  -0.9558  -0.9113  -0.7332
    -0.6403  -0.6314  -0.4979  -0.3096   0.4332   0.7053   0.8569   0.9698
     1.0747   1.3589   1.3746   1.3831   5.2523   5.9147   6.0383   6.2190
     6.2649   6.3574   6.6211   6.7049   6.7851   7.2475   7.3161   7.4551
     7.6511   7.7294

          k = 0.0000 0.3333 0.1635 ( 33632 PWs)   bands (ev):

   -49.2091 -49.2091 -48.9013 -48.9013 -48.8999 -48.8999 -48.8985 -48.8985
   -48.8973 -48.8973 -21.1559 -21.1549 -21.1197 -21.1197 -21.1192 -21.1192
   -20.8705 -20.8699 -20.8641 -20.8640 -20.8530 -20.8529 -20.8463 -20.8462
   -20.8323 -20.8320 -20.8269 -20.8267 -20.8238 -20.8221 -20.8191 -20.8191
   -20.8137 -20.8134 -20.8090 -20.8089 -20.8023 -20.8022 -20.8009 -20.8008
    -5.8115  -5.6421  -4.6304  -4.4756  -3.2177  -3.1638  -2.3302  -2.2590
    -2.1707  -1.5483  -1.2546  -1.1741  -1.1389  -1.1293  -0.9546  -0.8190
    -0.6653  -0.5504  -0.4862  -0.3926   0.5396   0.7325   0.8977   0.9605
     1.1356   1.1372   1.3596   1.5428   5.3510   5.9120   6.1092   6.1574
     6.2725   6.3732   6.3844   6.5388   6.9865   7.1678   7.4059   7.4334
     7.7185   7.9862

          k = 0.0000 0.3333-0.3270 ( 33628 PWs)   bands (ev):

   -49.2091 -49.2091 -48.9013 -48.9013 -48.8999 -48.8999 -48.8985 -48.8985
   -48.8973 -48.8973 -21.1554 -21.1554 -21.1195 -21.1195 -21.1194 -21.1194
   -20.8702 -20.8702 -20.8640 -20.8640 -20.8530 -20.8530 -20.8462 -20.8462
   -20.8322 -20.8322 -20.8268 -20.8268 -20.8230 -20.8230 -20.8191 -20.8191
   -20.8135 -20.8135 -20.8090 -20.8090 -20.8022 -20.8022 -20.8008 -20.8008
    -5.7287  -5.7287  -4.5630  -4.5630  -3.1962  -3.1962  -2.2935  -2.2935
    -1.7816  -1.7816  -1.2262  -1.2262  -1.1336  -1.1336  -0.9906  -0.9906
    -0.6429  -0.6429  -0.4046  -0.4046   0.6858   0.6858   0.9276   0.9276
     1.0997   1.0997   1.4962   1.4962   5.6207   5.6207   6.0519   6.0519
     6.3995   6.3995   6.6930   6.6930   6.7652   6.7652   7.4919   7.4919
     7.8849   7.8849

          k = 0.0000-0.5000 0.0000 ( 33654 PWs)   bands (ev):

   -49.2091 -49.2091 -48.9006 -48.9006 -48.9006 -48.9006 -48.8979 -48.8979
   -48.8979 -48.8979 -21.1554 -21.1554 -21.1195 -21.1195 -21.1194 -21.1194
   -20.8672 -20.8672 -20.8668 -20.8668 -20.8419 -20.8419 -20.8416 -20.8416
   -20.8353 -20.8353 -20.8351 -20.8351 -20.8202 -20.8202 -20.8188 -20.8188
   -20.8151 -20.8151 -20.8151 -20.8151 -20.8015 -20.8015 -20.8015 -20.8015
    -5.6079  -5.6079  -4.7621  -4.7621  -3.1986  -3.1986  -2.2439  -2.2439
    -2.0093  -2.0093  -1.2699  -1.2699  -1.0638  -1.0638  -0.7163  -0.7163
    -0.4792  -0.4792  -0.1373  -0.1373   0.2096   0.2096   0.9588   0.9588
     1.1843   1.1843   1.3688   1.3688   5.7987   5.7987   6.0278   6.0278
     6.2691   6.2691   6.8333   6.8333   7.2160   7.2160   7.3536   7.3536
     7.8111   7.8111

          k = 0.0000-0.5000 0.1635 ( 33644 PWs)   bands (ev):

   -49.2091 -49.2091 -48.9006 -48.9006 -48.9006 -48.9006 -48.8979 -48.8979
   -48.8979 -48.8979 -21.1554 -21.1554 -21.1195 -21.1195 -21.1194 -21.1194
   -20.8673 -20.8673 -20.8668 -20.8668 -20.8418 -20.8418 -20.8417 -20.8417
   -20.8352 -20.8352 -20.8351 -20.8351 -20.8203 -20.8203 -20.8188 -20.8188
   -20.8152 -20.8152 -20.8149 -20.8149 -20.8016 -20.8016 -20.8015 -20.8015
    -5.5995  -5.5995  -4.7829  -4.7829  -3.2017  -3.2017  -2.2424  -2.2424
    -1.8795  -1.8795  -1.2667  -1.2667  -1.1480  -1.1480  -0.8275  -0.8275
    -0.5113  -0.5113  -0.0353  -0.0353   0.1959   0.1959   0.9338   0.9338
     1.1262   1.1262   1.4776   1.4776   5.8680   5.8680   6.1039   6.1039
     6.2409   6.2409   6.6351   6.6351   7.0668   7.0669   7.5819   7.5819
     8.0006   8.0016

          k = 0.0000-0.5000-0.3270 ( 33572 PWs)   bands (ev):

   -49.2091 -49.2091 -48.9006 -48.9006 -48.9006 -48.9006 -48.8979 -48.8979
   -48.8979 -48.8979 -21.1554 -21.1554 -21.1195 -21.1195 -21.1194 -21.1194
   -20.8673 -20.8673 -20.8668 -20.8668 -20.8418 -20.8418 -20.8417 -20.8417
   -20.8352 -20.8352 -20.8351 -20.8351 -20.8203 -20.8203 -20.8187 -20.8187
   -20.8153 -20.8153 -20.8149 -20.8149 -20.8016 -20.8016 -20.8014 -20.8014
    -5.5907  -5.5907  -4.8039  -4.8039  -3.2043  -3.2043  -2.2406  -2.2406
    -1.6921  -1.6921  -1.2625  -1.2625  -1.2171  -1.2171  -1.0668  -1.0668
    -0.4478  -0.4478   0.0496   0.0496   0.1649   0.1649   0.8901   0.8901
     1.1063   1.1063   1.5594   1.5594   5.9237   5.9237   6.0860   6.0860
     6.3185   6.3185   6.7100   6.7100   6.7915   6.7915   7.8240   7.8243
     7.9114   7.9114

          k = 0.1667 0.1667 0.0000 ( 33661 PWs)   bands (ev):

   -49.2091 -49.2091 -48.9016 -48.9016 -48.8992 -48.8992 -48.8992 -48.8992
   -48.8970 -48.8970 -21.1564 -21.1544 -21.1201 -21.1198 -21.1191 -21.1188
   -20.8718 -20.8707 -20.8614 -20.8613 -20.8580 -20.8580 -20.8541 -20.8539
   -20.8286 -20.8282 -20.8256 -20.8229 -20.8229 -20.8226 -20.8220 -20.8220
   -20.8066 -20.8064 -20.8062 -20.8061 -20.8028 -20.8028 -20.8027 -20.8025
    -5.9716  -5.6832  -4.3658  -4.0985  -3.4569  -3.3580  -2.4756  -2.0372
    -1.9182  -1.6852  -1.5990  -1.1871  -1.1666  -1.1248  -1.0892  -0.7244
    -0.6543  -0.6209  -0.3952  -0.2134   0.4489   0.7825   0.8784   0.8848
     1.0815   1.3123   1.4830   1.4918   4.8742   5.6246   6.1953   6.3100
     6.3664   6.3898   6.7726   6.8207   6.9051   6.9492   7.0190   7.1002
     7.1749   7.7796

          k = 0.1667 0.1667 0.1635 ( 33683 PWs)   bands (ev):

   -49.2091 -49.2091 -48.9016 -48.9016 -48.8992 -48.8992 -48.8992 -48.8992
   -48.8970 -48.8970 -21.1561 -21.1547 -21.1199 -21.1197 -21.1192 -21.1190
   -20.8716 -20.8709 -20.8613 -20.8613 -20.8580 -20.8580 -20.8540 -20.8539
   -20.8285 -20.8282 -20.8252 -20.8234 -20.8228 -20.8227 -20.8220 -20.8220
   -20.8066 -20.8065 -20.8062 -20.8061 -20.8028 -20.8028 -20.8027 -20.8026
    -5.9342  -5.7312  -4.3315  -4.1435  -3.4535  -3.3799  -2.3032  -2.0197
    -1.9346  -1.6711  -1.6176  -1.4294  -1.1188  -1.0597  -1.0079  -0.7923
    -0.6636  -0.6386  -0.4122  -0.3758   0.5915   0.8688   0.8939   0.9933
     1.0614   1.2161   1.4166   1.5078   4.9757   5.5826   6.0854   6.3131
     6.4391   6.5064   6.5384   6.7978   6.9017   6.9222   6.9559   7.1860
     7.3275   7.9192

          k = 0.1667 0.1667-0.3270 ( 33648 PWs)   bands (ev):

   -49.2091 -49.2091 -48.9016 -48.9016 -48.8992 -48.8992 -48.8992 -48.8992
   -48.8970 -48.8970 -21.1554 -21.1554 -21.1194 -21.1194 -21.1194 -21.1194
   -20.8712 -20.8712 -20.8613 -20.8613 -20.8580 -20.8580 -20.8540 -20.8540
   -20.8284 -20.8284 -20.8243 -20.8243 -20.8227 -20.8227 -20.8220 -20.8220
   -20.8065 -20.8065 -20.8061 -20.8061 -20.8028 -20.8028 -20.8026 -20.8026
    -5.8379  -5.8379  -4.2428  -4.2428  -3.4250  -3.4250  -1.9801  -1.9801
    -1.8825  -1.8825  -1.6329  -1.6329  -1.1302  -1.1302  -0.7677  -0.7677
    -0.6452  -0.6452  -0.5398  -0.5398   0.7476   0.7476   1.0081   1.0081
     1.2671   1.2671   1.3229   1.3229   5.2612   5.2612   6.2459   6.2459
     6.4819   6.4819   6.6255   6.6255   6.8904   6.8904   7.0419   7.0419
     7.6742   7.6742

          k = 0.1667 0.3333 0.0000 ( 33641 PWs)   bands (ev):

   -49.2091 -49.2091 -48.9011 -48.9011 -48.8997 -48.8997 -48.8987 -48.8987
   -48.8975 -48.8974 -21.1559 -21.1548 -21.1200 -21.1195 -21.1194 -21.1189
   -20.8679 -20.8672 -20.8616 -20.8614 -20.8523 -20.8522 -20.8459 -20.8457
   -20.8331 -20.8327 -20.8266 -20.8263 -20.8234 -20.8214 -20.8201 -20.8200
   -20.8136 -20.8131 -20.8098 -20.8096 -20.8049 -20.8049 -20.8033 -20.8032
    -5.7701  -5.5337  -4.6499  -4.4168  -3.6526  -3.5984  -2.2696  -1.8715
    -1.7769  -1.5496  -1.5485  -1.3783  -1.0337  -0.9382  -0.7352  -0.6413
    -0.6376  -0.5880  -0.5335  -0.3279   0.4493   0.6824   0.8199   0.8904
     0.9824   1.3113   1.4076   1.5414   5.2600   5.8174   5.9509   6.0759
     6.3510   6.4892   6.5307   6.5573   6.8184   7.2891   7.3548   7.4146
     7.6758   7.7006

          k = 0.1667 0.3333 0.1635 ( 33628 PWs)   bands (ev):

   -49.2091 -49.2091 -48.9011 -48.9011 -48.8997 -48.8997 -48.8987 -48.8987
   -48.8974 -48.8974 -21.1558 -21.1550 -21.1199 -21.1195 -21.1194 -21.1191
   -20.8678 -20.8673 -20.8615 -20.8614 -20.8523 -20.8522 -20.8459 -20.8457
   -20.8330 -20.8328 -20.8266 -20.8264 -20.8231 -20.8217 -20.8201 -20.8200
   -20.8135 -20.8131 -20.8097 -20.8097 -20.8049 -20.8049 -20.8033 -20.8033
    -5.7376  -5.5701  -4.6242  -4.4593  -3.6511  -3.6107  -2.1218  -1.8772
    -1.7807  -1.6274  -1.4516  -1.3485  -1.0797  -0.9356  -0.7750  -0.7557
    -0.6756  -0.5380  -0.4757  -0.4629   0.4980   0.6866   0.7572   0.8403
     1.1061   1.3111   1.4446   1.5394   5.3612   5.7712   6.0723   6.2316
     6.2799   6.3445   6.4472   6.6808   6.9649   7.2298   7.3269   7.4268
     7.5133   7.6878

          k = 0.1667 0.3333-0.3270 ( 33656 PWs)   bands (ev):

   -49.2091 -49.2091 -48.9011 -48.9011 -48.8997 -48.8997 -48.8987 -48.8987
   -48.8974 -48.8974 -21.1554 -21.1554 -21.1195 -21.1195 -21.1194 -21.1194
   -20.8676 -20.8676 -20.8615 -20.8615 -20.8523 -20.8522 -20.8458 -20.8458
   -20.8329 -20.8329 -20.8265 -20.8265 -20.8225 -20.8223 -20.8201 -20.8200
   -20.8133 -20.8133 -20.8097 -20.8097 -20.8049 -20.8049 -20.8033 -20.8033
    -5.6559  -5.6559  -4.5502  -4.5496  -3.6371  -3.6346  -1.8999  -1.8778
    -1.7530  -1.7011  -1.4828  -1.3453  -1.0310  -0.9993  -0.9278  -0.7321
    -0.6935  -0.5781  -0.4687  -0.4494   0.5449   0.5540   0.7813   0.8063
     1.2874   1.3001   1.4635   1.5016   5.5705   5.5920   6.1208   6.2187
     6.3747   6.4643   6.6201   6.8052   6.8400   6.8707   7.3343   7.3679
     7.6103   7.7063

          k = 0.1667-0.5000 0.0000 ( 33614 PWs)   bands (ev):

   -49.2091 -49.2091 -48.9004 -48.9004 -48.9004 -48.9004 -48.8981 -48.8981
   -48.8981 -48.8981 -21.1554 -21.1554 -21.1198 -21.1198 -21.1192 -21.1192
   -20.8644 -20.8644 -20.8639 -20.8639 -20.8420 -20.8420 -20.8417 -20.8417
   -20.8351 -20.8351 -20.8349 -20.8349 -20.8198 -20.8198 -20.8185 -20.8185
   -20.8159 -20.8159 -20.8157 -20.8157 -20.8042 -20.8042 -20.8041 -20.8041
    -5.5283  -5.5283  -4.7427  -4.7427  -3.6523  -3.6523  -1.9463  -1.9463
    -1.8131  -1.8131  -1.5250  -1.5250  -0.8239  -0.8239  -0.7137  -0.7137
    -0.4863  -0.4863  -0.1015  -0.1015   0.1909   0.1909   0.8555   0.8555
     1.1010   1.1010   1.5170   1.5170   5.6567   5.6567   5.8744   5.8744
     6.4352   6.4352   6.6475   6.6475   7.0586   7.0586   7.3347   7.3347
     7.8531   7.8531

          k = 0.1667-0.5000 0.1635 ( 33622 PWs)   bands (ev):

   -49.2091 -49.2091 -48.9004 -48.9004 -48.9004 -48.9004 -48.8981 -48.8981
   -48.8981 -48.8981 -21.1554 -21.1554 -21.1197 -21.1197 -21.1192 -21.1192
   -20.8644 -20.8644 -20.8639 -20.8639 -20.8419 -20.8419 -20.8418 -20.8418
   -20.8351 -20.8351 -20.8349 -20.8349 -20.8198 -20.8198 -20.8185 -20.8185
   -20.8160 -20.8160 -20.8157 -20.8157 -20.8042 -20.8042 -20.8041 -20.8041
    -5.5197  -5.5197  -4.7617  -4.7617  -3.6558  -3.6558  -1.9100  -1.9100
    -1.7460  -1.7460  -1.5167  -1.5167  -0.8990  -0.8990  -0.7092  -0.7092
    -0.5939  -0.5939  -0.0159  -0.0159   0.1746   0.1746   0.7208   0.7208
     1.2258   1.2258   1.5324   1.5324   5.7593   5.7593   5.9963   5.9963
     6.3094   6.3094   6.6490   6.6490   6.9997   6.9997   7.4849   7.4849
     7.8085   7.8086

          k = 0.1667-0.5000-0.3270 ( 33612 PWs)   bands (ev):

   -49.2091 -49.2091 -48.9004 -48.9004 -48.9004 -48.9004 -48.8981 -48.8981
   -48.8981 -48.8981 -21.1554 -21.1554 -21.1195 -21.1195 -21.1194 -21.1194
   -20.8644 -20.8644 -20.8639 -20.8639 -20.8419 -20.8419 -20.8418 -20.8418
   -20.8350 -20.8350 -20.8349 -20.8349 -20.8198 -20.8198 -20.8185 -20.8185
   -20.8160 -20.8160 -20.8157 -20.8157 -20.8042 -20.8042 -20.8041 -20.8041
    -5.5107  -5.5107  -4.7808  -4.7808  -3.6588  -3.6588  -1.9110  -1.9110
    -1.6545  -1.6545  -1.3331  -1.3331  -1.2159  -1.2159  -0.7610  -0.7610
    -0.5204  -0.5204   0.0578   0.0578   0.1318   0.1318   0.6216   0.6216
     1.3018   1.3018   1.5539   1.5539   5.9252   5.9252   5.9992   5.9992
     6.3470   6.3470   6.6259   6.6259   6.9055   6.9055   7.5505   7.5505
     7.7833   7.7833

          k = 0.3333 0.3333 0.0000 ( 33684 PWs)   bands (ev):

   -49.2091 -49.2091 -48.9006 -48.9006 -48.8993 -48.8993 -48.8992 -48.8992
   -48.8979 -48.8979 -21.1557 -21.1550 -21.1201 -21.1198 -21.1192 -21.1189
   -20.8621 -20.8615 -20.8562 -20.8558 -20.8509 -20.8508 -20.8419 -20.8418
   -20.8364 -20.8361 -20.8263 -20.8260 -20.8232 -20.8227 -20.8207 -20.8194
   -20.8149 -20.8142 -20.8122 -20.8119 -20.8103 -20.8098 -20.8079 -20.8077
    -5.5591  -5.3447  -4.7102  -4.4223  -4.1614  -4.1209  -2.0718  -1.9096
    -1.8850  -1.4483  -1.3064  -1.0741  -0.9300  -0.8288  -0.6403  -0.5752
    -0.5703  -0.4389  -0.3903  -0.3723   0.4283   0.6661   0.6722   0.7558
     0.7603   1.0952   1.6068   1.6959   5.3026   5.5133   5.6993   5.8186
     6.2836   6.2938   6.6280   6.9027   7.0255   7.1786   7.2348   7.3411
     7.8187   7.8925

          k = 0.3333 0.3333 0.1635 ( 33624 PWs)   bands (ev):

   -49.2091 -49.2091 -48.9006 -48.9006 -48.8993 -48.8993 -48.8992 -48.8992
   -48.8979 -48.8979 -21.1556 -21.1551 -21.1199 -21.1197 -21.1193 -21.1190
   -20.8620 -20.8616 -20.8561 -20.8559 -20.8509 -20.8508 -20.8419 -20.8418
   -20.8364 -20.8361 -20.8262 -20.8260 -20.8231 -20.8228 -20.8206 -20.8197
   -20.8148 -20.8142 -20.8122 -20.8120 -20.8102 -20.8099 -20.8079 -20.8077
    -5.5292  -5.3774  -4.6734  -4.4711  -4.1601  -4.1338  -2.0426  -1.9815
    -1.7922  -1.3190  -1.2115  -1.0398  -0.9726  -0.8045  -0.7181  -0.6361
    -0.6001  -0.5070  -0.4373  -0.3868   0.3968   0.4962   0.5743   0.6799
     1.0137   1.2220   1.6163   1.6751   5.4438   5.6101   5.8641   5.9474
     6.1547   6.3490   6.6691   6.8246   7.0138   7.2573   7.3597   7.3951
     7.5978   7.6972

          k = 0.3333 0.3333-0.3270 ( 33598 PWs)   bands (ev):

   -49.2091 -49.2091 -48.9006 -48.9006 -48.8993 -48.8993 -48.8992 -48.8992
   -48.8979 -48.8979 -21.1554 -21.1554 -21.1195 -21.1195 -21.1195 -21.1195
   -20.8618 -20.8618 -20.8560 -20.8560 -20.8508 -20.8508 -20.8418 -20.8418
   -20.8362 -20.8362 -20.8261 -20.8261 -20.8229 -20.8229 -20.8201 -20.8201
   -20.8145 -20.8145 -20.8121 -20.8121 -20.8100 -20.8100 -20.8078 -20.8078
    -5.4548  -5.4548  -4.5781  -4.5781  -4.1524  -4.1524  -2.0442  -2.0442
    -1.4360  -1.4360  -1.0704  -1.0704  -0.9304  -0.9304  -0.7557  -0.7557
    -0.5442  -0.5442  -0.4213  -0.4213   0.3041   0.3041   0.6342   0.6342
     1.2328   1.2328   1.6367   1.6367   5.6582   5.6582   6.0225   6.0225
     6.3430   6.3430   6.7003   6.7003   7.0145   7.0145   7.4045   7.4045
     7.5760   7.5760

          k = 0.3333-0.5000 0.0000 ( 33646 PWs)   bands (ev):

   -49.2091 -49.2091 -48.8999 -48.8999 -48.8999 -48.8999 -48.8986 -48.8986
   -48.8986 -48.8986 -21.1554 -21.1554 -21.1200 -21.1200 -21.1190 -21.1190
   -20.8572 -20.8572 -20.8568 -20.8568 -20.8435 -20.8435 -20.8432 -20.8432
   -20.8333 -20.8333 -20.8332 -20.8332 -20.8202 -20.8202 -20.8197 -20.8197
   -20.8170 -20.8170 -20.8165 -20.8165 -20.8101 -20.8101 -20.8097 -20.8097
    -5.2952  -5.2952  -4.7155  -4.7155  -4.2638  -4.2638  -2.0108  -2.0108
    -1.7656  -1.7656  -1.1144  -1.1144  -0.8415  -0.8415  -0.4605  -0.4605
    -0.3977  -0.3977  -0.0299  -0.0299   0.1437   0.1437   0.7163   0.7163
     0.8370   0.8370   1.7259   1.7259   5.3771   5.3771   5.5324   5.5324
     6.4566   6.4566   6.7627   6.7627   6.9164   6.9164   7.5692   7.5693
     7.9392   7.9393

          k = 0.3333-0.5000 0.1635 ( 33640 PWs)   bands (ev):

   -49.2091 -49.2091 -48.8999 -48.8999 -48.8999 -48.8999 -48.8986 -48.8986
   -48.8986 -48.8986 -21.1554 -21.1554 -21.1199 -21.1199 -21.1191 -21.1191
   -20.8572 -20.8572 -20.8568 -20.8568 -20.8434 -20.8434 -20.8432 -20.8432
   -20.8333 -20.8333 -20.8332 -20.8332 -20.8202 -20.8202 -20.8197 -20.8197
   -20.8171 -20.8171 -20.8164 -20.8164 -20.8100 -20.8100 -20.8098 -20.8098
    -5.2862  -5.2862  -4.7233  -4.7233  -4.2770  -4.2770  -2.0940  -2.0940
    -1.5829  -1.5829  -1.0260  -1.0260  -0.8172  -0.8172  -0.6720  -0.6720
    -0.4086  -0.4086   0.0262   0.0262   0.1061   0.1061   0.4676   0.4676
     1.0641   1.0641   1.7224   1.7224   5.5432   5.5432   5.7046   5.7046
     6.2966   6.2966   6.7787   6.7787   7.0334   7.0334   7.4407   7.4407
     7.7632   7.7632

          k = 0.3333-0.5000-0.3270 ( 33628 PWs)   bands (ev):

   -49.2091 -49.2091 -48.8999 -48.8999 -48.8999 -48.8999 -48.8986 -48.8986
   -48.8986 -48.8986 -21.1554 -21.1554 -21.1195 -21.1195 -21.1195 -21.1195
   -20.8572 -20.8572 -20.8569 -20.8569 -20.8433 -20.8433 -20.8433 -20.8433
   -20.8333 -20.8333 -20.8332 -20.8332 -20.8201 -20.8201 -20.8198 -20.8198
   -20.8171 -20.8171 -20.8163 -20.8163 -20.8100 -20.8100 -20.8099 -20.8099
    -5.2768  -5.2768  -4.7319  -4.7319  -4.2895  -4.2895  -2.1499  -2.1499
    -1.2631  -1.2631  -1.1398  -1.1398  -0.8821  -0.8821  -0.6895  -0.6895
    -0.4375  -0.4375   0.0064   0.0064   0.0738   0.0738   0.3575   0.3575
     1.1750   1.1750   1.7181   1.7181   5.8286   5.8286   5.8935   5.8935
     6.1046   6.1046   6.7421   6.7421   7.1007   7.1007   7.3324   7.3324
     7.5878   7.5879

          k =-0.5000-0.5000 0.0000 ( 33664 PWs)   bands (ev):

   -49.2091 -49.2091 -48.8993 -48.8993 -48.8993 -48.8993 -48.8992 -48.8992
   -48.8992 -48.8992 -21.1553 -21.1553 -21.1201 -21.1201 -21.1189 -21.1189
   -20.8514 -20.8514 -20.8508 -20.8508 -20.8464 -20.8464 -20.8462 -20.8462
   -20.8305 -20.8305 -20.8304 -20.8304 -20.8238 -20.8238 -20.8234 -20.8234
   -20.8154 -20.8154 -20.8150 -20.8150 -20.8144 -20.8144 -20.8129 -20.8129
    -5.0048  -5.0048  -4.8411  -4.8411  -4.5456  -4.5456  -2.1336  -2.1336
    -1.5546  -1.5546  -1.3793  -1.3793  -0.4400  -0.4400  -0.3626  -0.3626
    -0.1837  -0.1837  -0.0873  -0.0873   0.1158   0.1158   0.5740   0.5740
     0.6570   0.6570   1.8113   1.8113   5.2691   5.2691   5.3178   5.3178
     6.4233   6.4233   6.7893   6.7895   7.5171   7.5442   7.5442   7.6663
     7.6674   7.7498

          k =-0.5000-0.5000 0.1635 ( 33624 PWs)   bands (ev):

   -49.2091 -49.2091 -48.8993 -48.8993 -48.8993 -48.8993 -48.8992 -48.8992
   -48.8992 -48.8992 -21.1553 -21.1553 -21.1199 -21.1199 -21.1191 -21.1191
   -20.8513 -20.8513 -20.8509 -20.8509 -20.8463 -20.8463 -20.8462 -20.8462
   -20.8305 -20.8305 -20.8304 -20.8304 -20.8237 -20.8237 -20.8234 -20.8234
   -20.8154 -20.8154 -20.8151 -20.8151 -20.8143 -20.8143 -20.8130 -20.8130
    -5.0034  -5.0034  -4.8035  -4.8035  -4.5958  -4.5958  -2.2080  -2.2080
    -1.4178  -1.4178  -1.2045  -1.2045  -0.6687  -0.6687  -0.3552  -0.3552
    -0.1933  -0.1933  -0.0006  -0.0006   0.1077   0.1077   0.1992   0.1992
     0.9192   0.9192   1.8084   1.8084   5.4531   5.4531   5.5192   5.5192
     6.2718   6.2718   6.8934   6.8935   7.1170   7.1170   7.6918   7.6918
     7.7630   7.7630

          k =-0.5000-0.5000-0.3270 ( 33616 PWs)   bands (ev):

   -49.2091 -49.2091 -48.8993 -48.8993 -48.8993 -48.8993 -48.8992 -48.8992
   -48.8992 -48.8992 -21.1553 -21.1553 -21.1195 -21.1195 -21.1195 -21.1195
   -20.8512 -20.8512 -20.8510 -20.8510 -20.8463 -20.8463 -20.8463 -20.8463
   -20.8304 -20.8304 -20.8304 -20.8304 -20.8236 -20.8236 -20.8236 -20.8236
   -20.8152 -20.8152 -20.8152 -20.8152 -20.8141 -20.8141 -20.8131 -20.8131
    -5.0019  -5.0019  -4.7058  -4.7058  -4.7058  -4.7058  -2.2666  -2.2666
    -1.0721  -1.0721  -1.0721  -1.0721  -1.0072  -1.0072  -0.3504  -0.3504
    -0.2001  -0.2001  -0.0570  -0.0570   0.0759   0.0759   0.0759   0.0759
     1.0247   1.0247   1.8055   1.8055   5.7176   5.7176   5.9304   5.9304
     5.9304   5.9304   6.7296   6.7296   7.3038   7.3038   7.3038   7.3039
     7.5734   7.5734

     the Fermi energy is     2.8704 ev

!    total energy              =   -1223.63957926 Ry
     estimated scf accuracy    <          1.4E-09 Ry
     smearing contrib. (-TS)   =       0.00000000 Ry
     internal energy E=F+TS    =   -1223.63957926 Ry

     The total energy is F=E-TS. E is the sum of the following terms:
     one-electron contribution =    -816.26848600 Ry
     hartree contribution      =     437.30566277 Ry
     xc contribution           =    -179.81841030 Ry
     ewald contribution        =    -456.83040397 Ry
     one-center paw contrib.   =    -208.02794176 Ry

     convergence has been achieved in   9 iterations

     Forces acting on atoms (cartesian axes, Ry/au):

     atom    1 type  3   force =     0.00000000    0.00000000   -0.00000000
     atom    2 type  3   force =     0.00000000    0.00000000   -0.00000000
     atom    3 type  3   force =     0.00000000    0.00000000    0.00000000
     atom    4 type  3   force =     0.00000000    0.00000000   -0.00000000
     atom    5 type  3   force =     0.00000000    0.00000000   -0.00000000
     atom    6 type  3   force =     0.00000000    0.00000000    0.00000000
     atom    7 type  2   force =     0.00000000    0.00000000    0.00000000
     atom    8 type  2   force =     0.00000000    0.00000000    0.00000000
     atom    9 type  2   force =    -0.00058369   -0.00058369   -0.00000000
     atom   10 type  2   force =     0.00058369   -0.00058369    0.00000000
     atom   11 type  2   force =     0.00058369    0.00058369    0.00000000
     atom   12 type  2   force =     0.00058369   -0.00058369   -0.00000000
     atom   13 type  2   force =     0.00058369    0.00058369    0.00000000
     atom   14 type  2   force =    -0.00058369    0.00058369    0.00000000
     atom   15 type  2   force =    -0.00058369    0.00058369   -0.00000000
     atom   16 type  2   force =    -0.00058369   -0.00058369   -0.00000000
     atom   17 type  1   force =     0.00101233   -0.00185941    0.00240132
     atom   18 type  1   force =    -0.00101233   -0.00185941   -0.00240132
     atom   19 type  1   force =     0.00185941   -0.00101233   -0.00240132
     atom   20 type  1   force =    -0.00101233   -0.00185941    0.00240132
     atom   21 type  1   force =     0.00185941   -0.00101233    0.00240132
     atom   22 type  1   force =    -0.00101233    0.00185941    0.00240132
     atom   23 type  1   force =    -0.00185941   -0.00101233    0.00240132
     atom   24 type  1   force =    -0.00101233    0.00185941   -0.00240132
     atom   25 type  1   force =    -0.00185941   -0.00101233   -0.00240132
     atom   26 type  1   force =     0.00185941    0.00101233    0.00240132
     atom   27 type  1   force =     0.00101233   -0.00185941   -0.00240132
     atom   28 type  1   force =     0.00185941    0.00101233   -0.00240132
     atom   29 type  1   force =     0.00101233    0.00185941   -0.00240132
     atom   30 type  1   force =    -0.00185941    0.00101233   -0.00240132
     atom   31 type  1   force =     0.00101233    0.00185941    0.00240132
     atom   32 type  1   force =    -0.00185941    0.00101233    0.00240132
     atom   33 type  1   force =     0.00000000    0.00000000   -0.00254872
     atom   34 type  1   force =     0.00000000    0.00000000    0.00254872
     atom   35 type  1   force =     0.00000000    0.00000000   -0.00254872
     atom   36 type  1   force =     0.00000000    0.00000000    0.00254872
     atom   37 type  1   force =    -0.00065796    0.00230027   -0.00000000
     atom   38 type  1   force =     0.00065796    0.00230027    0.00000000
     atom   39 type  1   force =    -0.00230027    0.00065796    0.00000000
     atom   40 type  1   force =     0.00065796   -0.00230027   -0.00000000
     atom   41 type  1   force =     0.00230027    0.00065796    0.00000000
     atom   42 type  1   force =    -0.00230027   -0.00065796    0.00000000
     atom   43 type  1   force =    -0.00065796   -0.00230027    0.00000000
     atom   44 type  1   force =     0.00230027   -0.00065796   -0.00000000

     Total force =     0.015531     Total SCF correction =     0.000019


     Computing stress (Cartesian axis) and pressure

          total   stress  (Ry/bohr**3)                   (kbar)     P=       17.12
   0.00011247   0.00000000   0.00000000           16.55        0.00        0.00
   0.00000000   0.00011247   0.00000000            0.00       16.55        0.00
   0.00000000   0.00000000   0.00012412            0.00        0.00       18.26


     Writing output data file ./Na5Al3H14_experimental.save/

     init_run     :    231.30s CPU     53.03s WALL (       1 calls)
     electrons    :   5982.97s CPU   1192.49s WALL (       1 calls)
     forces       :     72.89s CPU     13.53s WALL (       1 calls)
     stress       :    857.33s CPU    227.49s WALL (       1 calls)

     Called by init_run:
     wfcinit      :    225.91s CPU     48.69s WALL (       1 calls)
     potinit      :      1.36s CPU      1.45s WALL (       1 calls)
     hinit0       :      1.13s CPU      1.17s WALL (       1 calls)

     Called by electrons:
     c_bands      :   5631.30s CPU   1045.18s WALL (       9 calls)
     sum_band     :    320.01s CPU    125.31s WALL (       9 calls)
     v_of_rho     :      3.35s CPU      3.43s WALL (      10 calls)
     newd         :     25.08s CPU     14.34s WALL (      10 calls)
     PAW_pot      :      5.61s CPU      5.62s WALL (      10 calls)
     mix_rho      :      0.62s CPU      0.63s WALL (       9 calls)

     Called by c_bands:
     init_us_2    :     80.92s CPU     26.74s WALL (     630 calls)
     cegterg      :   5539.97s CPU    974.65s WALL (     270 calls)

     Called by *egterg:
     cdiaghg      :     64.69s CPU     14.35s WALL (    1421 calls)
     h_psi        :   3642.82s CPU    779.39s WALL (    1451 calls)
     s_psi        :    535.42s CPU     40.53s WALL (    1451 calls)
     g_psi        :     60.26s CPU     15.55s WALL (    1151 calls)

     Called by h_psi:
     h_psi:calbec :    360.00s CPU     28.34s WALL (    1451 calls)
     vloc_psi     :   2681.21s CPU    693.82s WALL (    1451 calls)
     add_vuspsi   :    572.91s CPU     42.54s WALL (    1451 calls)

     General routines
     calbec       :    522.61s CPU     42.48s WALL (    1871 calls)
     fft          :      3.24s CPU      3.13s WALL (     153 calls)
     ffts         :      0.33s CPU      0.13s WALL (      19 calls)
     fftw         :   2189.72s CPU    640.29s WALL (  145122 calls)
     interpolate  :      0.30s CPU      0.30s WALL (      10 calls)

     Parallel routines

     PWSCF        :      1h59m CPU  24m48.38s WALL


   This run was terminated on:  22:18:21  24Oct2023            

=------------------------------------------------------------------------------=
   JOB DONE.
=------------------------------------------------------------------------------=
