
     Program PWSCF v.6.7MaX starts on 24Oct2023 at 12:59:53 

     This program is part of the open-source Quantum ESPRESSO suite
     for quantum simulation of materials; please cite
         "P. Giannozzi et al., J. Phys.:Condens. Matter 21 395502 (2009);
         "P. Giannozzi et al., J. Phys.:Condens. Matter 29 465901 (2017);
          URL http://www.quantum-espresso.org", 
     in publications or presentations arising from this work. More details at
     http://www.quantum-espresso.org/quote

     Parallel version (MPI), running on     1 processors

     MPI processes distributed on     1 nodes
     Reading input from NaH_experimental.in

     Current dimensions of program PWSCF are:
     Max number of different atomic species (ntypx) = 10
     Max number of k-points (npk) =  40000
     Max angular momentum in pseudopotentials (lmaxx) =  3
     Message from routine volume:
     axis vectors are left-handed

     IMPORTANT: XC functional enforced from input :
     Exchange-correlation= PBE
                           (   1   4   3   4   0   0   0)
     Any further DFT definition will be discarded
     Please, verify this is what you really want


     Subspace diagonalization in iterative solution of the eigenvalue problem:
     a serial algorithm will be used

     Message from routine setup:
     using ibrav=0 with symmetry is DISCOURAGED, use correct ibrav instead

     G-vector sticks info
     --------------------
     sticks:   dense  smooth     PW     G-vecs:    dense   smooth      PW
     Sum        1045     847    253                22419    16145    2733



     bravais-lattice index     =            0
     lattice parameter (alat)  =       9.0194  a.u.
     unit-cell volume          =     183.4287 (a.u.)^3
     number of atoms/cell      =            2
     number of atomic types    =            2
     number of electrons       =        10.00
     number of Kohn-Sham states=            9
     kinetic-energy cutoff     =      75.0000  Ry
     charge density cutoff     =     375.0000  Ry
     scf convergence threshold =      1.0E-08
     mixing beta               =       0.7000
     number of iterations used =            8  plain     mixing
     Exchange-correlation= PBE
                           (   1   4   3   4   0   0   0)

     celldm(1)=   9.019360  celldm(2)=   0.000000  celldm(3)=   0.000000
     celldm(4)=   0.000000  celldm(5)=   0.000000  celldm(6)=   0.000000

     crystal axes: (cart. coord. in units of alat)
               a(1) = (   0.500000   0.500000   0.000000 )  
               a(2) = (   0.500000   0.000000   0.500000 )  
               a(3) = (   0.000000   0.500000   0.500000 )  

     reciprocal axes: (cart. coord. in units 2 pi/alat)
               b(1) = (  1.000000  1.000000 -1.000000 )  
               b(2) = (  1.000000 -1.000000  1.000000 )  
               b(3) = ( -1.000000  1.000000  1.000000 )  


     PseudoPot. # 1 for H  read from file:
     ../../pseudopotentials/H.pbe-rrkjus_psl.1.0.0.UPF
     MD5 check sum: f52b6d4d1c606e5624b1dc7b2218f220
     Pseudo is Ultrasoft, Zval =  1.0
     Generated using "atomic" code by A. Dal Corso  v.5.1
     Using radial grid of  929 points,  2 beta functions with: 
                l(1) =   0
                l(2) =   0
     Q(r) pseudized with 0 coefficients 


     PseudoPot. # 2 for Na read from file:
     ../../pseudopotentials/na_pbe_v1.5.uspp.F.UPF
     MD5 check sum: 44600605ef58000f06b90626533354dc
     Pseudo is Ultrasoft, Zval =  9.0
     Generated by new atomic code, or converted to UPF format
     Using radial grid of  819 points,  5 beta functions with: 
                l(1) =   0
                l(2) =   0
                l(3) =   1
                l(4) =   1
                l(5) =   2
     Q(r) pseudized with  8 coefficients,  rinner =    1.250   1.250   1.250
                                                       1.250   1.250

     atomic species   valence    mass     pseudopotential
        H              1.00     1.00750     H ( 1.00)
        Na             9.00    22.98900     Na( 1.00)

     48 Sym. Ops., with inversion, found



   Cartesian axes

     site n.     atom                  positions (alat units)
         1           Na  tau(   1) = (   0.0000000   0.0000000   0.0000000  )
         2           H   tau(   2) = (   0.5000000   0.5000000   0.5000000  )

     number of k points=    16  Marzari-Vanderbilt smearing, width (Ry)=  0.0050
                       cart. coord. in units 2pi/alat
        k(    1) = (   0.0000000   0.0000000   0.0000000), wk =   0.0092593
        k(    2) = (  -0.1666667   0.1666667   0.1666667), wk =   0.0740741
        k(    3) = (  -0.3333333   0.3333333   0.3333333), wk =   0.0740741
        k(    4) = (   0.5000000  -0.5000000  -0.5000000), wk =   0.0370370
        k(    5) = (   0.0000000   0.0000000   0.3333333), wk =   0.0555556
        k(    6) = (  -0.1666667   0.1666667   0.5000000), wk =   0.2222222
        k(    7) = (   0.6666667  -0.6666667  -0.3333333), wk =   0.2222222
        k(    8) = (   0.5000000  -0.5000000  -0.1666667), wk =   0.2222222
        k(    9) = (   0.3333333  -0.3333333   0.0000000), wk =   0.1111111
        k(   10) = (   0.0000000   0.0000000   0.6666667), wk =   0.0555556
        k(   11) = (   0.8333333  -0.8333333  -0.1666667), wk =   0.2222222
        k(   12) = (   0.6666667  -0.6666667  -0.0000000), wk =   0.1111111
        k(   13) = (   0.0000000   0.0000000  -1.0000000), wk =   0.0277778
        k(   14) = (   1.0000000  -0.6666667  -0.3333333), wk =   0.2222222
        k(   15) = (   0.8333333  -0.5000000  -0.1666667), wk =   0.2222222
        k(   16) = (   0.0000000   0.3333333  -1.0000000), wk =   0.1111111

     Dense  grid:    22419 G-vectors     FFT dimensions: (  40,  40,  40)

     Smooth grid:    16145 G-vectors     FFT dimensions: (  36,  36,  36)

     Estimated max dynamical RAM per process >      63.12 MB

     Initial potential from superposition of free atoms

     starting charge    9.99370, renormalised to   10.00000
     Starting wfcs are    6 randomized atomic wfcs +    3 random wfcs

     total cpu time spent up to now is        0.5 secs

     Self-consistent Calculation

     iteration #  1     ecut=    75.00 Ry     beta= 0.70
     Davidson diagonalization with overlap
     ethr =  1.00E-02,  avg # of iterations =  5.4

     Threshold (ethr) on eigenvalues was too large:
     Diagonalizing with lowered threshold

     Davidson diagonalization with overlap
     ethr =  9.23E-04,  avg # of iterations =  1.0

     total cpu time spent up to now is        1.5 secs

     total energy              =     -96.52669295 Ry
     estimated scf accuracy    <       0.09182280 Ry

     iteration #  2     ecut=    75.00 Ry     beta= 0.70
     Davidson diagonalization with overlap
     ethr =  9.18E-04,  avg # of iterations =  1.9

     total cpu time spent up to now is        2.0 secs

     total energy              =     -96.54021390 Ry
     estimated scf accuracy    <       0.00154799 Ry

     iteration #  3     ecut=    75.00 Ry     beta= 0.70
     Davidson diagonalization with overlap
     ethr =  1.55E-05,  avg # of iterations =  4.1

     total cpu time spent up to now is        2.6 secs

     total energy              =     -96.54057728 Ry
     estimated scf accuracy    <       0.00009374 Ry

     iteration #  4     ecut=    75.00 Ry     beta= 0.70
     Davidson diagonalization with overlap
     ethr =  9.37E-07,  avg # of iterations =  3.1

     total cpu time spent up to now is        3.1 secs

     total energy              =     -96.54064743 Ry
     estimated scf accuracy    <       0.00000939 Ry

     iteration #  5     ecut=    75.00 Ry     beta= 0.70
     Davidson diagonalization with overlap
     ethr =  9.39E-08,  avg # of iterations =  2.0

     total cpu time spent up to now is        3.6 secs

     total energy              =     -96.54064921 Ry
     estimated scf accuracy    <       0.00000006 Ry

     iteration #  6     ecut=    75.00 Ry     beta= 0.70
     Davidson diagonalization with overlap
     ethr =  5.61E-10,  avg # of iterations =  2.2

     total cpu time spent up to now is        4.1 secs

     End of self-consistent calculation

          k = 0.0000 0.0000 0.0000 (  1989 PWs)   bands (ev):

   -49.3511 -21.2313 -21.2313 -21.2313  -2.8981  11.5736  16.7060  16.7061
    16.7061

          k =-0.1667 0.1667 0.1667 (  2007 PWs)   bands (ev):

   -49.3491 -21.2582 -21.2345 -21.2345  -2.4126   9.9434  13.4322  15.6120
    15.6120

          k =-0.3333 0.3333 0.3333 (  2006 PWs)   bands (ev):

   -49.3451 -21.3112 -21.2408 -21.2408  -1.1155   6.5334  12.1817  14.7366
    14.7366

          k = 0.5000-0.5000-0.5000 (  2006 PWs)   bands (ev):

   -49.3432 -21.3373 -21.2440 -21.2440  -0.0547   4.6451  11.8859  14.4415
    14.4415

          k = 0.0000 0.0000 0.3333 (  2009 PWs)   bands (ev):

   -49.3485 -21.2572 -21.2402 -21.2402  -2.2579   9.9055  13.8937  14.0805
    14.0805

          k =-0.1667 0.1667 0.5000 (  2008 PWs)   bands (ev):

   -49.3452 -21.2954 -21.2480 -21.2479  -1.2425   7.6693  10.9488  13.2847
    15.1836

          k = 0.6667-0.6667-0.3333 (  2018 PWs)   bands (ev):

   -49.3425 -21.3254 -21.2588 -21.2497   0.0385   5.3413   9.7351  13.3083
    14.6196

          k = 0.5000-0.5000-0.1667 (  2020 PWs)   bands (ev):

   -49.3432 -21.3175 -21.2623 -21.2440  -0.3228   5.9714   9.4598  14.1873
    14.8248

          k = 0.3333-0.3333 0.0000 (  2003 PWs)   bands (ev):

   -49.3465 -21.2836 -21.2505 -21.2364  -1.6567   8.4732  10.6743  15.2437
    15.8517

          k = 0.0000 0.0000 0.6667 (  2016 PWs)   bands (ev):

   -49.3432 -21.3043 -21.2581 -21.2581  -0.6188   7.1267  11.7294  12.3174
    12.3174

          k = 0.8333-0.8333-0.1667 (  2013 PWs)   bands (ev):

   -49.3412 -21.3162 -21.2738 -21.2613   0.3695   6.0987   8.7812  12.1475
    12.8044

          k = 0.6667-0.6667-0.0000 (  2015 PWs)   bands (ev):

   -49.3412 -21.3009 -21.2977 -21.2543   0.5510   6.6279   6.7914  12.8004
    13.5046

          k = 0.0000 0.0000-1.0000 (  2044 PWs)   bands (ev):

   -49.3406 -21.3257 -21.2671 -21.2671   0.6357   5.5327  11.0008  11.7443
    11.7443

          k = 1.0000-0.6667-0.3333 (  2012 PWs)   bands (ev):

   -49.3425 -21.3083 -21.2713 -21.2529  -0.1922   6.7303   8.7160  11.7464
    16.6763

          k = 0.8333-0.5000-0.1667 (  2012 PWs)   bands (ev):

   -49.3412 -21.3109 -21.2833 -21.2588   0.5548   6.0184   7.8249  10.9008
    16.6840

          k = 0.0000 0.3333-1.0000 (  2018 PWs)   bands (ev):

   -49.3406 -21.3110 -21.2817 -21.2689   0.7731   6.1594   8.0699   9.7798
    16.1101

     the Fermi energy is     2.3327 ev

!    total energy              =     -96.54064924 Ry
     estimated scf accuracy    <          1.2E-09 Ry
     smearing contrib. (-TS)   =       0.00000000 Ry
     internal energy E=F+TS    =     -96.54064924 Ry

     The total energy is F=E-TS. E is the sum of the following terms:
     one-electron contribution =     -78.09936144 Ry
     hartree contribution      =      40.50712215 Ry
     xc contribution           =     -15.09010262 Ry
     ewald contribution        =     -43.85830734 Ry

     convergence has been achieved in   6 iterations

     Forces acting on atoms (cartesian axes, Ry/au):

     atom    1 type  2   force =     0.00000000   -0.00000000    0.00000000
     atom    2 type  1   force =     0.00000000   -0.00000000    0.00000000

     Total force =     0.000000     Total SCF correction =     0.000000


     Computing stress (Cartesian axis) and pressure

          total   stress  (Ry/bohr**3)                   (kbar)     P=        9.72
   0.00006607   0.00000000   0.00000000            9.72        0.00        0.00
   0.00000000   0.00006607   0.00000000            0.00        9.72        0.00
   0.00000000   0.00000000   0.00006607            0.00        0.00        9.72


     Writing output data file ./NaH_experimental.save/

     init_run     :      0.83s CPU      0.43s WALL (       1 calls)
     electrons    :     15.18s CPU      3.67s WALL (       1 calls)
     forces       :      0.24s CPU      0.05s WALL (       1 calls)
     stress       :      1.45s CPU      0.39s WALL (       1 calls)

     Called by init_run:
     wfcinit      :      0.56s CPU      0.15s WALL (       1 calls)
     potinit      :      0.02s CPU      0.03s WALL (       1 calls)
     hinit0       :      0.19s CPU      0.20s WALL (       1 calls)

     Called by electrons:
     c_bands      :     10.59s CPU      2.58s WALL (       7 calls)
     sum_band     :      3.37s CPU      0.78s WALL (       7 calls)
     v_of_rho     :      0.64s CPU      0.17s WALL (       7 calls)
     newd         :      0.48s CPU      0.15s WALL (       7 calls)
     mix_rho      :      0.09s CPU      0.03s WALL (       7 calls)

     Called by c_bands:
     init_us_2    :      0.49s CPU      0.12s WALL (     272 calls)
     cegterg      :      9.92s CPU      2.41s WALL (     112 calls)

     Called by *egterg:
     cdiaghg      :      0.15s CPU      0.03s WALL (     414 calls)
     h_psi        :      9.62s CPU      2.37s WALL (     446 calls)
     s_psi        :      0.06s CPU      0.01s WALL (     446 calls)
     g_psi        :      0.10s CPU      0.02s WALL (     318 calls)

     Called by h_psi:
     h_psi:calbec :      0.08s CPU      0.02s WALL (     446 calls)
     vloc_psi     :      9.43s CPU      2.32s WALL (     446 calls)
     add_vuspsi   :      0.06s CPU      0.02s WALL (     446 calls)

     General routines
     calbec       :      0.14s CPU      0.04s WALL (     638 calls)
     fft          :      0.39s CPU      0.12s WALL (      98 calls)
     ffts         :      0.04s CPU      0.01s WALL (      14 calls)
     fftw         :      9.41s CPU      2.34s WALL (    6386 calls)
     interpolate  :      0.04s CPU      0.01s WALL (       7 calls)

     Parallel routines

     PWSCF        :     17.85s CPU      4.63s WALL


   This run was terminated on:  12:59:58  24Oct2023            

=------------------------------------------------------------------------------=
   JOB DONE.
=------------------------------------------------------------------------------=
