
     Program PWSCF v.6.7MaX starts on 17Oct2023 at 21:15:30 

     This program is part of the open-source Quantum ESPRESSO suite
     for quantum simulation of materials; please cite
         "P. Giannozzi et al., J. Phys.:Condens. Matter 21 395502 (2009);
         "P. Giannozzi et al., J. Phys.:Condens. Matter 29 465901 (2017);
          URL http://www.quantum-espresso.org", 
     in publications or presentations arising from this work. More details at
     http://www.quantum-espresso.org/quote

     Parallel version (MPI), running on     1 processors

     MPI processes distributed on     1 nodes
     Reading input from NaAlH4.in

     Current dimensions of program PWSCF are:
     Max number of different atomic species (ntypx) = 10
     Max number of k-points (npk) =  40000
     Max angular momentum in pseudopotentials (lmaxx) =  3
     file Al.pbe-n-kjpaw_psl.1.0.0.UPF: wavefunction(s)  3S 3P renormalized

     IMPORTANT: XC functional enforced from input :
     Exchange-correlation= PBE
                           (   1   4   3   4   0   0   0)
     Any further DFT definition will be discarded
     Please, verify this is what you really want


     Subspace diagonalization in iterative solution of the eigenvalue problem:
     a serial algorithm will be used

     Message from routine setup:
     using ibrav=0 with symmetry is DISCOURAGED, use correct ibrav instead

     G-vector sticks info
     --------------------
     sticks:   dense  smooth     PW     G-vecs:    dense   smooth      PW
     Sum        1741    1373    405                60553    43255    6725



     bravais-lattice index     =            0
     lattice parameter (alat)  =       9.3373  a.u.
     unit-cell volume          =     905.3038 (a.u.)^3
     number of atoms/cell      =           12
     number of atomic types    =            3
     number of electrons       =        32.00
     number of Kohn-Sham states=           20
     kinetic-energy cutoff     =      50.0000  Ry
     charge density cutoff     =     250.0000  Ry
     scf convergence threshold =      1.0E-08
     mixing beta               =       0.7000
     number of iterations used =            8  plain     mixing
     Exchange-correlation= PBE
                           (   1   4   3   4   0   0   0)

     celldm(1)=   9.337326  celldm(2)=   0.000000  celldm(3)=   0.000000
     celldm(4)=   0.000000  celldm(5)=   0.000000  celldm(6)=   0.000000

     crystal axes: (cart. coord. in units of alat)
               a(1) = (   1.000000   0.000000   0.000000 )  
               a(2) = (   0.000000   1.000000   0.000000 )  
               a(3) = (   0.500000   0.500000   1.112056 )  

     reciprocal axes: (cart. coord. in units 2 pi/alat)
               b(1) = (  1.000000  0.000000 -0.449617 )  
               b(2) = (  0.000000  1.000000 -0.449617 )  
               b(3) = (  0.000000  0.000000  0.899235 )  


     PseudoPot. # 1 for Al read from file:
     /home/vojta/Dokumenty/UA_CompPhys/pseudopotentials/Al.pbe-n-kjpaw_psl.1.0.0.UPF
     MD5 check sum: cfc449ca30b5f3223ec38ddd88ac046d
     Pseudo is Projector augmented-wave + core cor, Zval =  3.0
     Generated using "atomic" code by A. Dal Corso  v.5.1
     Shape of augmentation charge: PSQ
     Using radial grid of 1135 points,  6 beta functions with: 
                l(1) =   0
                l(2) =   0
                l(3) =   1
                l(4) =   1
                l(5) =   2
                l(6) =   2
     Q(r) pseudized with 0 coefficients 


     PseudoPot. # 2 for H  read from file:
     /home/vojta/Dokumenty/UA_CompPhys/pseudopotentials/H.pbe-rrkjus_psl.1.0.0.UPF
     MD5 check sum: f52b6d4d1c606e5624b1dc7b2218f220
     Pseudo is Ultrasoft, Zval =  1.0
     Generated using "atomic" code by A. Dal Corso  v.5.1
     Using radial grid of  929 points,  2 beta functions with: 
                l(1) =   0
                l(2) =   0
     Q(r) pseudized with 0 coefficients 


     PseudoPot. # 3 for Na read from file:
     /home/vojta/Dokumenty/UA_CompPhys/pseudopotentials/na_pbe_v1.5.uspp.F.UPF
     MD5 check sum: 44600605ef58000f06b90626533354dc
     Pseudo is Ultrasoft, Zval =  9.0
     Generated by new atomic code, or converted to UPF format
     Using radial grid of  819 points,  5 beta functions with: 
                l(1) =   0
                l(2) =   0
                l(3) =   1
                l(4) =   1
                l(5) =   2
     Q(r) pseudized with  8 coefficients,  rinner =    1.250   1.250   1.250
                                                       1.250   1.250

     atomic species   valence    mass     pseudopotential
        Al             3.00    26.98100     Al( 1.00)
        H              1.00     1.00750     H ( 1.00)
        Na             9.00    22.98900     Na( 1.00)

      8 Sym. Ops., with inversion, found ( 6 have fractional translation)



   Cartesian axes

     site n.     atom                  positions (alat units)
         1           Al  tau(   1) = (   1.0000000   0.2500000   0.2780141  )
         2           Al  tau(   2) = (   0.5000000   1.2500000   0.8340423  )
         3           Na  tau(   3) = (   0.5000000   0.7500000   0.2780141  )
         4           Na  tau(   4) = (   1.0000000   0.7500000   0.8340423  )
         5           H   tau(   5) = (   0.3578100   1.0135100   0.6538447  )
         6           H   tau(   6) = (   0.7635100   0.3921900   0.0978165  )
         7           H   tau(   7) = (   1.2635100   1.3921900   1.0142399  )
         8           H   tau(   8) = (   0.8578100   1.0135100   0.4582117  )
         9           H   tau(   9) = (   0.6421900   0.4864900   0.6538447  )
        10           H   tau(  10) = (   1.1421900   0.4864900   0.4582117  )
        11           H   tau(  11) = (   0.7364900   1.1078100   1.0142399  )
        12           H   tau(  12) = (   0.2364900   0.1078100   0.0978165  )

     number of k points=    11  Marzari-Vanderbilt smearing, width (Ry)=  0.0050
                       cart. coord. in units 2pi/alat
        k(    1) = (   0.0000000   0.0000000   0.0000000), wk =   0.0625000
        k(    2) = (   0.0000000   0.0000000  -0.4496175), wk =   0.0625000
        k(    3) = (   0.0000000   0.2500000  -0.1124044), wk =   0.2500000
        k(    4) = (   0.0000000   0.2500000  -0.5620219), wk =   0.2500000
        k(    5) = (   0.0000000  -0.5000000   0.2248087), wk =   0.2500000
        k(    6) = (   0.2500000   0.2500000  -0.2248087), wk =   0.2500000
        k(    7) = (   0.2500000  -0.5000000   0.1124044), wk =   0.2500000
        k(    8) = (   0.2500000  -0.2500000   0.0000000), wk =   0.1250000
        k(    9) = (   0.2500000  -0.2500000  -0.4496175), wk =   0.1250000
        k(   10) = (  -0.5000000  -0.5000000   0.4496175), wk =   0.1250000
        k(   11) = (  -0.5000000   0.2500000  -0.1124044), wk =   0.2500000

     Dense  grid:    60553 G-vectors     FFT dimensions: (  48,  48,  64)

     Smooth grid:    43255 G-vectors     FFT dimensions: (  48,  48,  60)

     Estimated max dynamical RAM per process >     261.58 MB

     Initial potential from superposition of free atoms

     starting charge   31.98276, renormalised to   32.00000
     Starting wfcs are   26 randomized atomic wfcs
     Checking if some PAW data can be deallocated... 

     total cpu time spent up to now is        2.0 secs

     Self-consistent Calculation

     iteration #  1     ecut=    50.00 Ry     beta= 0.70
     Davidson diagonalization with overlap
     ethr =  1.00E-02,  avg # of iterations =  4.0

     total cpu time spent up to now is        5.2 secs

     total energy              =    -279.10738065 Ry
     estimated scf accuracy    <       0.55150481 Ry

     iteration #  2     ecut=    50.00 Ry     beta= 0.70
     Davidson diagonalization with overlap
     ethr =  1.72E-03,  avg # of iterations =  2.0

     total cpu time spent up to now is        8.0 secs

     total energy              =    -279.14400621 Ry
     estimated scf accuracy    <       0.01024821 Ry

     iteration #  3     ecut=    50.00 Ry     beta= 0.70
     Davidson diagonalization with overlap
     ethr =  3.20E-05,  avg # of iterations =  9.3

     total cpu time spent up to now is       12.4 secs

     total energy              =    -279.14682048 Ry
     estimated scf accuracy    <       0.00037696 Ry

     iteration #  4     ecut=    50.00 Ry     beta= 0.70
     Davidson diagonalization with overlap
     ethr =  1.18E-06,  avg # of iterations =  3.8

     total cpu time spent up to now is       16.1 secs

     total energy              =    -279.14692554 Ry
     estimated scf accuracy    <       0.00004490 Ry

     iteration #  5     ecut=    50.00 Ry     beta= 0.70
     Davidson diagonalization with overlap
     ethr =  1.40E-07,  avg # of iterations =  2.3

     total cpu time spent up to now is       19.3 secs

     total energy              =    -279.14693328 Ry
     estimated scf accuracy    <       0.00000519 Ry

     iteration #  6     ecut=    50.00 Ry     beta= 0.70
     Davidson diagonalization with overlap
     ethr =  1.62E-08,  avg # of iterations =  2.1

     total cpu time spent up to now is       22.4 secs

     total energy              =    -279.14693388 Ry
     estimated scf accuracy    <       0.00000008 Ry

     iteration #  7     ecut=    50.00 Ry     beta= 0.70
     Davidson diagonalization with overlap
     ethr =  2.45E-10,  avg # of iterations =  4.6

     total cpu time spent up to now is       26.3 secs

     total energy              =    -279.14693392 Ry
     estimated scf accuracy    <       0.00000002 Ry

     iteration #  8     ecut=    50.00 Ry     beta= 0.70
     Davidson diagonalization with overlap
     ethr =  7.08E-11,  avg # of iterations =  2.0

     total cpu time spent up to now is       29.4 secs

     End of self-consistent calculation

          k = 0.0000 0.0000 0.0000 (  5399 PWs)   bands (ev):

   -49.8268 -49.8252 -21.7595 -21.7519 -21.7519 -21.7460 -21.7460 -21.7355
    -6.2357  -2.9937  -2.2664  -1.2806  -1.2806  -0.8744  -0.8744  -0.1004
     4.7481   4.8216   5.4563   6.2883

          k = 0.0000 0.0000-0.4496 (  5444 PWs)   bands (ev):

   -49.8260 -49.8260 -21.7552 -21.7552 -21.7476 -21.7476 -21.7428 -21.7428
    -5.2334  -5.2334  -1.8136  -1.8136  -0.5296  -0.5296  -0.0546  -0.0546
     4.9945   4.9945   6.3217   6.3219

          k = 0.0000 0.2500-0.1124 (  5414 PWs)   bands (ev):

   -49.8266 -49.8254 -21.7588 -21.7532 -21.7528 -21.7453 -21.7450 -21.7366
    -5.8996  -3.5523  -2.0892  -1.8869  -1.2713  -0.9226  -0.7109  -0.0292
     5.0092   5.7596   5.8833   6.1895

          k = 0.0000 0.2500-0.5620 (  5409 PWs)   bands (ev):

   -49.8263 -49.8257 -21.7568 -21.7544 -21.7524 -21.7446 -21.7435 -21.7403
    -5.4317  -4.5518  -2.5920  -1.5857  -0.9365  -0.4056  -0.2828  -0.1474
     5.0732   5.7423   5.8470   6.3655

          k = 0.0000-0.5000 0.2248 (  5414 PWs)   bands (ev):

   -49.8264 -49.8256 -21.7579 -21.7549 -21.7534 -21.7443 -21.7438 -21.7383
    -5.3015  -4.2717  -2.5689  -2.0205  -1.1936  -0.6547  -0.3942  -0.2441
     5.4151   5.8220   5.9896   5.9907

          k = 0.2500 0.2500-0.2248 (  5412 PWs)   bands (ev):

   -49.8264 -49.8256 -21.7574 -21.7557 -21.7525 -21.7462 -21.7423 -21.7384
    -5.4677  -3.9923  -2.2846  -2.0837  -1.3586  -0.9323  -0.5475  -0.1513
     5.4188   5.7026   6.0717   6.4548

          k = 0.2500-0.5000 0.1124 (  5395 PWs)   bands (ev):

   -49.8263 -49.8257 -21.7585 -21.7559 -21.7516 -21.7474 -21.7418 -21.7380
    -5.0559  -4.1613  -2.6075  -1.8675  -1.4718  -1.1677  -0.7520  -0.3661
     5.1307   5.8680   6.4662   6.6786

          k = 0.2500-0.2500 0.0000 (  5387 PWs)   bands (ev):

   -49.8265 -49.8255 -21.7594 -21.7542 -21.7514 -21.7474 -21.7438 -21.7362
    -5.6917  -3.4383  -1.9414  -1.7791  -1.6342  -1.5696  -0.9070  -0.1356
     5.1339   6.1335   6.3426   6.3587

          k = 0.2500-0.2500-0.4496 (  5416 PWs)   bands (ev):

   -49.8260 -49.8260 -21.7569 -21.7566 -21.7491 -21.7485 -21.7409 -21.7406
    -4.8477  -4.8382  -2.4485  -2.3995  -0.6384  -0.5748  -0.4019  -0.3881
     5.4628   5.5844   5.8514   6.2202

          k =-0.5000-0.5000 0.4496 (  5378 PWs)   bands (ev):

   -49.8260 -49.8260 -21.7578 -21.7578 -21.7498 -21.7498 -21.7393 -21.7393
    -4.4521  -4.4521  -2.1076  -2.1076  -1.8347  -1.8347  -0.6569  -0.6569
     5.0478   5.0478   7.1992   7.1992

          k =-0.5000 0.2500-0.1124 (  5395 PWs)   bands (ev):

   -49.8263 -49.8257 -21.7584 -21.7562 -21.7514 -21.7476 -21.7415 -21.7381
    -5.0589  -4.1521  -2.5842  -1.9092  -1.5618  -1.0731  -0.8429  -0.2295
     5.0609   5.7944   6.2835   6.4891

     the Fermi energy is     0.0224 ev

!    total energy              =    -279.14693393 Ry
     estimated scf accuracy    <          6.1E-10 Ry
     smearing contrib. (-TS)   =       0.00025201 Ry
     internal energy E=F+TS    =    -279.14718593 Ry

     The total energy is F=E-TS. E is the sum of the following terms:
     one-electron contribution =    -172.69000375 Ry
     hartree contribution      =      92.93439736 Ry
     xc contribution           =     -39.60055233 Ry
     ewald contribution        =     -90.40844892 Ry
     one-center paw contrib.   =     -69.38257829 Ry

     convergence has been achieved in   8 iterations

     Forces acting on atoms (cartesian axes, Ry/au):

     atom    1 type  1   force =     0.00000000    0.00000000    0.00000000
     atom    2 type  1   force =     0.00000000    0.00000000    0.00000000
     atom    3 type  3   force =     0.00000000    0.00000000    0.00000000
     atom    4 type  3   force =     0.00000000    0.00000000    0.00000000
     atom    5 type  2   force =    -0.00197814   -0.00292422   -0.00264386
     atom    6 type  2   force =    -0.00292422    0.00197814   -0.00264386
     atom    7 type  2   force =    -0.00292422    0.00197814    0.00264386
     atom    8 type  2   force =    -0.00197814   -0.00292422    0.00264386
     atom    9 type  2   force =     0.00197814    0.00292422   -0.00264386
     atom   10 type  2   force =     0.00197814    0.00292422    0.00264386
     atom   11 type  2   force =     0.00292422   -0.00197814    0.00264386
     atom   12 type  2   force =     0.00292422   -0.00197814   -0.00264386

     Total force =     0.012475     Total SCF correction =     0.000003


     Computing stress (Cartesian axis) and pressure

          total   stress  (Ry/bohr**3)                   (kbar)     P=       13.43
   0.00009307  -0.00000000   0.00000000           13.69       -0.00        0.00
   0.00000000   0.00009307   0.00000000            0.00       13.69        0.00
   0.00000000   0.00000000   0.00008768            0.00        0.00       12.90


     Writing output data file ./results/NaAlH4_442_50_250.save/

     init_run     :      5.63s CPU      1.94s WALL (       1 calls)
     electrons    :    109.48s CPU     27.41s WALL (       1 calls)
     forces       :      2.10s CPU      0.64s WALL (       1 calls)
     stress       :      8.66s CPU      2.80s WALL (       1 calls)

     Called by init_run:
     wfcinit      :      4.11s CPU      0.94s WALL (       1 calls)
     potinit      :      0.28s CPU      0.30s WALL (       1 calls)
     hinit0       :      0.62s CPU      0.46s WALL (       1 calls)

     Called by electrons:
     c_bands      :     80.35s CPU     18.38s WALL (       8 calls)
     sum_band     :     22.58s CPU      5.44s WALL (       8 calls)
     v_of_rho     :      0.76s CPU      0.40s WALL (       9 calls)
     newd         :      4.65s CPU      1.91s WALL (       9 calls)
     PAW_pot      :      1.59s CPU      1.59s WALL (       9 calls)
     mix_rho      :      0.22s CPU      0.06s WALL (       8 calls)

     Called by c_bands:
     init_us_2    :      3.05s CPU      0.57s WALL (     209 calls)
     cegterg      :     73.08s CPU     16.64s WALL (      88 calls)

     Called by *egterg:
     cdiaghg      :      1.55s CPU      0.19s WALL (     419 calls)
     h_psi        :     64.23s CPU     15.99s WALL (     430 calls)
     s_psi        :      2.48s CPU      0.30s WALL (     430 calls)
     g_psi        :      1.08s CPU      0.12s WALL (     331 calls)

     Called by h_psi:
     h_psi:calbec :      2.26s CPU      0.60s WALL (     430 calls)
     vloc_psi     :     59.17s CPU     15.00s WALL (     430 calls)
     add_vuspsi   :      2.44s CPU      0.34s WALL (     430 calls)

     General routines
     calbec       :      3.25s CPU      0.85s WALL (     573 calls)
     fft          :      0.34s CPU      0.16s WALL (     140 calls)
     ffts         :      0.22s CPU      0.06s WALL (      17 calls)
     fftw         :     58.77s CPU     15.10s WALL (   12172 calls)
     interpolate  :      0.04s CPU      0.04s WALL (       9 calls)

     Parallel routines

     PWSCF        :   2m 6.18s CPU     32.94s WALL


   This run was terminated on:  21:16: 3  17Oct2023            

=------------------------------------------------------------------------------=
   JOB DONE.
=------------------------------------------------------------------------------=
