
     Program PWSCF v.6.7MaX starts on 17Oct2023 at 21:16:51 

     This program is part of the open-source Quantum ESPRESSO suite
     for quantum simulation of materials; please cite
         "P. Giannozzi et al., J. Phys.:Condens. Matter 21 395502 (2009);
         "P. Giannozzi et al., J. Phys.:Condens. Matter 29 465901 (2017);
          URL http://www.quantum-espresso.org", 
     in publications or presentations arising from this work. More details at
     http://www.quantum-espresso.org/quote

     Parallel version (MPI), running on     1 processors

     MPI processes distributed on     1 nodes
     Reading input from NaAlH4.in

     Current dimensions of program PWSCF are:
     Max number of different atomic species (ntypx) = 10
     Max number of k-points (npk) =  40000
     Max angular momentum in pseudopotentials (lmaxx) =  3
     file Al.pbe-n-kjpaw_psl.1.0.0.UPF: wavefunction(s)  3S 3P renormalized

     IMPORTANT: XC functional enforced from input :
     Exchange-correlation= PBE
                           (   1   4   3   4   0   0   0)
     Any further DFT definition will be discarded
     Please, verify this is what you really want


     Subspace diagonalization in iterative solution of the eigenvalue problem:
     a serial algorithm will be used

     Message from routine setup:
     using ibrav=0 with symmetry is DISCOURAGED, use correct ibrav instead

     G-vector sticks info
     --------------------
     sticks:   dense  smooth     PW     G-vecs:    dense   smooth      PW
     Sum        1741    1373    421                60553    43255    7149



     bravais-lattice index     =            0
     lattice parameter (alat)  =       9.3373  a.u.
     unit-cell volume          =     905.3038 (a.u.)^3
     number of atoms/cell      =           12
     number of atomic types    =            3
     number of electrons       =        32.00
     number of Kohn-Sham states=           20
     kinetic-energy cutoff     =      50.0000  Ry
     charge density cutoff     =     250.0000  Ry
     scf convergence threshold =      1.0E-08
     mixing beta               =       0.7000
     number of iterations used =            8  plain     mixing
     Exchange-correlation= PBE
                           (   1   4   3   4   0   0   0)

     celldm(1)=   9.337326  celldm(2)=   0.000000  celldm(3)=   0.000000
     celldm(4)=   0.000000  celldm(5)=   0.000000  celldm(6)=   0.000000

     crystal axes: (cart. coord. in units of alat)
               a(1) = (   1.000000   0.000000   0.000000 )  
               a(2) = (   0.000000   1.000000   0.000000 )  
               a(3) = (   0.500000   0.500000   1.112056 )  

     reciprocal axes: (cart. coord. in units 2 pi/alat)
               b(1) = (  1.000000  0.000000 -0.449617 )  
               b(2) = (  0.000000  1.000000 -0.449617 )  
               b(3) = (  0.000000  0.000000  0.899235 )  


     PseudoPot. # 1 for Al read from file:
     /home/vojta/Dokumenty/UA_CompPhys/pseudopotentials/Al.pbe-n-kjpaw_psl.1.0.0.UPF
     MD5 check sum: cfc449ca30b5f3223ec38ddd88ac046d
     Pseudo is Projector augmented-wave + core cor, Zval =  3.0
     Generated using "atomic" code by A. Dal Corso  v.5.1
     Shape of augmentation charge: PSQ
     Using radial grid of 1135 points,  6 beta functions with: 
                l(1) =   0
                l(2) =   0
                l(3) =   1
                l(4) =   1
                l(5) =   2
                l(6) =   2
     Q(r) pseudized with 0 coefficients 


     PseudoPot. # 2 for H  read from file:
     /home/vojta/Dokumenty/UA_CompPhys/pseudopotentials/H.pbe-rrkjus_psl.1.0.0.UPF
     MD5 check sum: f52b6d4d1c606e5624b1dc7b2218f220
     Pseudo is Ultrasoft, Zval =  1.0
     Generated using "atomic" code by A. Dal Corso  v.5.1
     Using radial grid of  929 points,  2 beta functions with: 
                l(1) =   0
                l(2) =   0
     Q(r) pseudized with 0 coefficients 


     PseudoPot. # 3 for Na read from file:
     /home/vojta/Dokumenty/UA_CompPhys/pseudopotentials/na_pbe_v1.5.uspp.F.UPF
     MD5 check sum: 44600605ef58000f06b90626533354dc
     Pseudo is Ultrasoft, Zval =  9.0
     Generated by new atomic code, or converted to UPF format
     Using radial grid of  819 points,  5 beta functions with: 
                l(1) =   0
                l(2) =   0
                l(3) =   1
                l(4) =   1
                l(5) =   2
     Q(r) pseudized with  8 coefficients,  rinner =    1.250   1.250   1.250
                                                       1.250   1.250

     atomic species   valence    mass     pseudopotential
        Al             3.00    26.98100     Al( 1.00)
        H              1.00     1.00750     H ( 1.00)
        Na             9.00    22.98900     Na( 1.00)

      8 Sym. Ops., with inversion, found ( 6 have fractional translation)



   Cartesian axes

     site n.     atom                  positions (alat units)
         1           Al  tau(   1) = (   1.0000000   0.2500000   0.2780141  )
         2           Al  tau(   2) = (   0.5000000   1.2500000   0.8340423  )
         3           Na  tau(   3) = (   0.5000000   0.7500000   0.2780141  )
         4           Na  tau(   4) = (   1.0000000   0.7500000   0.8340423  )
         5           H   tau(   5) = (   0.3578100   1.0135100   0.6538447  )
         6           H   tau(   6) = (   0.7635100   0.3921900   0.0978165  )
         7           H   tau(   7) = (   1.2635100   1.3921900   1.0142399  )
         8           H   tau(   8) = (   0.8578100   1.0135100   0.4582117  )
         9           H   tau(   9) = (   0.6421900   0.4864900   0.6538447  )
        10           H   tau(  10) = (   1.1421900   0.4864900   0.4582117  )
        11           H   tau(  11) = (   0.7364900   1.1078100   1.0142399  )
        12           H   tau(  12) = (   0.2364900   0.1078100   0.0978165  )

     number of k points=    30  Marzari-Vanderbilt smearing, width (Ry)=  0.0050
                       cart. coord. in units 2pi/alat
        k(    1) = (   0.0000000   0.0000000   0.0000000), wk =   0.0185185
        k(    2) = (   0.0000000   0.0000000   0.2997450), wk =   0.0370370
        k(    3) = (   0.0000000   0.1666667  -0.0749362), wk =   0.0740741
        k(    4) = (   0.0000000   0.1666667   0.2248087), wk =   0.0740741
        k(    5) = (   0.0000000   0.1666667  -0.3746812), wk =   0.0740741
        k(    6) = (   0.0000000   0.3333333  -0.1498725), wk =   0.1481481
        k(    7) = (   0.0000000   0.3333333  -0.4496175), wk =   0.0740741
        k(    8) = (   0.0000000  -0.5000000   0.2248087), wk =   0.0370370
        k(    9) = (   0.0000000  -0.5000000   0.5245537), wk =   0.0740741
        k(   10) = (   0.1666667   0.1666667  -0.1498725), wk =   0.0740741
        k(   11) = (   0.1666667   0.1666667  -0.4496175), wk =   0.0370370
        k(   12) = (   0.1666667   0.3333333  -0.2248087), wk =   0.0740741
        k(   13) = (   0.1666667   0.3333333   0.0749362), wk =   0.0740741
        k(   14) = (   0.1666667   0.3333333  -0.5245537), wk =   0.0740741
        k(   15) = (   0.1666667  -0.5000000   0.1498725), wk =   0.0740741
        k(   16) = (   0.1666667  -0.5000000   0.4496175), wk =   0.0370370
        k(   17) = (   0.1666667  -0.1666667  -0.0000000), wk =   0.0370370
        k(   18) = (   0.1666667  -0.1666667   0.2997450), wk =   0.0740741
        k(   19) = (   0.3333333   0.3333333  -0.2997450), wk =   0.1481481
        k(   20) = (   0.3333333   0.3333333   0.0000000), wk =   0.0740741
        k(   21) = (   0.3333333  -0.5000000   0.0749362), wk =   0.0740741
        k(   22) = (   0.3333333  -0.5000000  -0.2248087), wk =   0.0740741
        k(   23) = (  -0.5000000  -0.5000000   0.4496175), wk =   0.0185185
        k(   24) = (  -0.5000000  -0.5000000   0.7493625), wk =   0.0370370
        k(   25) = (   0.3333333   0.1666667   0.2248087), wk =   0.0740741
        k(   26) = (   0.3333333   0.1666667  -0.0749362), wk =   0.0740741
        k(   27) = (   0.3333333   0.1666667   0.5245537), wk =   0.0740741
        k(   28) = (  -0.5000000   0.1666667  -0.1498725), wk =   0.0740741
        k(   29) = (  -0.5000000   0.1666667  -0.4496175), wk =   0.0370370
        k(   30) = (  -0.5000000   0.3333333  -0.0749362), wk =   0.0740741

     Dense  grid:    60553 G-vectors     FFT dimensions: (  48,  48,  64)

     Smooth grid:    43255 G-vectors     FFT dimensions: (  48,  48,  60)

     Estimated max dynamical RAM per process >     292.92 MB

     Initial potential from superposition of free atoms

     starting charge   31.98276, renormalised to   32.00000
     Starting wfcs are   26 randomized atomic wfcs
     Checking if some PAW data can be deallocated... 

     total cpu time spent up to now is        3.8 secs

     Self-consistent Calculation

     iteration #  1     ecut=    50.00 Ry     beta= 0.70
     Davidson diagonalization with overlap
     ethr =  1.00E-02,  avg # of iterations =  3.8

     total cpu time spent up to now is       11.9 secs

     total energy              =    -279.10791091 Ry
     estimated scf accuracy    <       0.55146717 Ry

     iteration #  2     ecut=    50.00 Ry     beta= 0.70
     Davidson diagonalization with overlap
     ethr =  1.72E-03,  avg # of iterations =  2.0

     total cpu time spent up to now is       19.0 secs

     total energy              =    -279.14460054 Ry
     estimated scf accuracy    <       0.01004826 Ry

     iteration #  3     ecut=    50.00 Ry     beta= 0.70
     Davidson diagonalization with overlap
     ethr =  3.14E-05,  avg # of iterations =  9.1

     total cpu time spent up to now is       29.9 secs

     total energy              =    -279.14737113 Ry
     estimated scf accuracy    <       0.00036747 Ry

     iteration #  4     ecut=    50.00 Ry     beta= 0.70
     Davidson diagonalization with overlap
     ethr =  1.15E-06,  avg # of iterations =  5.2

     total cpu time spent up to now is       38.9 secs

     total energy              =    -279.14747586 Ry
     estimated scf accuracy    <       0.00004383 Ry

     iteration #  5     ecut=    50.00 Ry     beta= 0.70
     Davidson diagonalization with overlap
     ethr =  1.37E-07,  avg # of iterations =  2.3

     total cpu time spent up to now is       46.2 secs

     total energy              =    -279.14748345 Ry
     estimated scf accuracy    <       0.00000485 Ry

     iteration #  6     ecut=    50.00 Ry     beta= 0.70
     Davidson diagonalization with overlap
     ethr =  1.52E-08,  avg # of iterations =  2.0

     total cpu time spent up to now is       53.5 secs

     total energy              =    -279.14748401 Ry
     estimated scf accuracy    <       0.00000006 Ry

     iteration #  7     ecut=    50.00 Ry     beta= 0.70
     Davidson diagonalization with overlap
     ethr =  1.80E-10,  avg # of iterations =  4.4

     total cpu time spent up to now is       63.4 secs

     total energy              =    -279.14748405 Ry
     estimated scf accuracy    <       0.00000001 Ry

     iteration #  8     ecut=    50.00 Ry     beta= 0.70
     Davidson diagonalization with overlap
     ethr =  4.18E-11,  avg # of iterations =  2.2

     total cpu time spent up to now is       71.0 secs

     End of self-consistent calculation

          k = 0.0000 0.0000 0.0000 (  5399 PWs)   bands (ev):

   -49.8254 -49.8239 -21.7583 -21.7506 -21.7506 -21.7446 -21.7446 -21.7343
    -6.2370  -2.9951  -2.2679  -1.2823  -1.2823  -0.8760  -0.8760  -0.1021
     4.7475   4.8209   5.4556   6.2874

          k = 0.0000 0.0000 0.2997 (  5408 PWs)   bands (ev):

   -49.8250 -49.8243 -21.7532 -21.7532 -21.7524 -21.7420 -21.7420 -21.7404
    -5.7834  -4.5049  -1.7337  -1.7337  -0.9761  -0.2798  -0.2147  -0.2147
     4.7964   4.9048   6.5018   6.5019

          k = 0.0000 0.1667-0.0749 (  5411 PWs)   bands (ev):

   -49.8253 -49.8240 -21.7579 -21.7512 -21.7510 -21.7443 -21.7441 -21.7348
    -6.0838  -3.2970  -2.0371  -1.6826  -1.2848  -0.9707  -0.7834  -0.0320
     4.8890   5.3418   5.6381   6.3122

          k = 0.0000 0.1667 0.2248 (  5412 PWs)   bands (ev):

   -49.8251 -49.8241 -21.7553 -21.7527 -21.7523 -21.7428 -21.7428 -21.7376
    -5.8616  -4.0506  -2.0976  -1.5556  -1.2671  -0.5474  -0.4222  -0.0858
     4.8591   5.2724   6.2044   6.3659

          k = 0.0000 0.1667-0.3747 (  5425 PWs)   bands (ev):

   -49.8248 -49.8245 -21.7547 -21.7534 -21.7496 -21.7439 -21.7417 -21.7402
    -5.4289  -4.8058  -2.2777  -1.7105  -0.6916  -0.3633  -0.1749  -0.1467
     5.0207   5.3355   5.9726   6.4274

          k = 0.0000 0.3333-0.1499 (  5412 PWs)   bands (ev):

   -49.8251 -49.8241 -21.7571 -21.7526 -21.7517 -21.7434 -21.7432 -21.7361
    -5.6665  -3.8459  -2.3468  -1.9384  -1.2442  -0.7575  -0.6613  -0.0755
     5.1868   5.7150   6.0294   6.4408

          k = 0.0000 0.3333-0.4496 (  5432 PWs)   bands (ev):

   -49.8248 -49.8245 -21.7567 -21.7529 -21.7495 -21.7449 -21.7421 -21.7381
    -5.0929  -4.7379  -2.9383  -1.4996  -0.8047  -0.6196  -0.2729  -0.2309
     5.1591   5.6228   6.0819   6.7915

          k = 0.0000-0.5000 0.2248 (  5414 PWs)   bands (ev):

   -49.8250 -49.8243 -21.7566 -21.7536 -21.7520 -21.7429 -21.7425 -21.7370
    -5.3028  -4.2730  -2.5703  -2.0219  -1.1953  -0.6564  -0.3959  -0.2458
     5.4142   5.8210   5.9888   5.9899

          k = 0.0000-0.5000 0.5246 (  5393 PWs)   bands (ev):

   -49.8250 -49.8243 -21.7576 -21.7521 -21.7515 -21.7441 -21.7429 -21.7364
    -5.3147  -4.2039  -2.8876  -1.5383  -1.2019  -0.7777  -0.5849  -0.1725
     5.2904   5.6900   6.0274   6.6351

          k = 0.1667 0.1667-0.1499 (  5400 PWs)   bands (ev):

   -49.8252 -49.8241 -21.7570 -21.7527 -21.7512 -21.7444 -21.7426 -21.7359
    -5.8790  -3.6543  -1.9229  -1.8584  -1.4684  -0.9400  -0.5921  -0.0545
     5.3174   5.3375   5.8075   6.5166

          k = 0.1667 0.1667-0.4496 (  5420 PWs)   bands (ev):

   -49.8246 -49.8246 -21.7548 -21.7545 -21.7472 -21.7467 -21.7405 -21.7402
    -5.0471  -5.0423  -2.2211  -2.1855  -0.4841  -0.3766  -0.2872  -0.2185
     5.3016   5.3709   6.0865   6.1371

          k = 0.1667 0.3333-0.2248 (  5413 PWs)   bands (ev):

   -49.8250 -49.8243 -21.7563 -21.7541 -21.7514 -21.7445 -21.7412 -21.7371
    -5.4335  -4.0529  -2.5074  -1.7685  -1.4905  -0.8583  -0.5733  -0.1008
     5.3644   5.5989   6.2607   6.4094

          k = 0.1667 0.3333 0.0749 (  5405 PWs)   bands (ev):

   -49.8251 -49.8241 -21.7579 -21.7531 -21.7504 -21.7456 -21.7422 -21.7354
    -5.6206  -3.6377  -2.2403  -1.8719  -1.4660  -1.2048  -0.8760  -0.0621
     5.2278   5.6507   6.0879   6.8865

          k = 0.1667 0.3333-0.5246 (  5402 PWs)   bands (ev):

   -49.8248 -49.8245 -21.7565 -21.7539 -21.7500 -21.7452 -21.7409 -21.7381
    -5.0976  -4.5424  -2.7972  -1.8860  -0.9187  -0.6240  -0.3892  -0.3504
     5.3721   5.7865   5.9487   6.4240

          k = 0.1667-0.5000 0.1499 (  5402 PWs)   bands (ev):

   -49.8250 -49.8243 -21.7571 -21.7540 -21.7511 -21.7448 -21.7412 -21.7368
    -5.1919  -4.2060  -2.6305  -1.8007  -1.4880  -0.9247  -0.4860  -0.3532
     5.4117   5.6555   6.1981   6.5414

          k = 0.1667-0.5000 0.4496 (  5391 PWs)   bands (ev):

   -49.8250 -49.8243 -21.7576 -21.7537 -21.7497 -21.7462 -21.7413 -21.7364
    -5.2053  -4.1384  -2.8331  -1.6471  -1.3041  -1.0026  -0.8045  -0.1064
     5.0854   5.6690   6.1510   6.4797

          k = 0.1667-0.1667-0.0000 (  5407 PWs)   bands (ev):

   -49.8253 -49.8240 -21.7583 -21.7517 -21.7503 -21.7453 -21.7436 -21.7346
    -5.9881  -3.2065  -2.0795  -1.5609  -1.4884  -1.3314  -0.8420  -0.0395
     5.4257   5.4798   5.5614   6.1233

          k = 0.1667-0.1667 0.2997 (  5414 PWs)   bands (ev):

   -49.8250 -49.8243 -21.7547 -21.7541 -21.7513 -21.7437 -21.7412 -21.7390
    -5.5579  -4.3802  -2.1355  -2.0904  -0.9200  -0.5015  -0.3042  -0.1434
     5.2512   5.4310   5.9225   6.3465

          k = 0.3333 0.3333-0.2997 (  5410 PWs)   bands (ev):

   -49.8248 -49.8244 -21.7562 -21.7557 -21.7501 -21.7461 -21.7394 -21.7378
    -4.9902  -4.2452  -2.5310  -2.2109  -1.4054  -0.9440  -0.6545  -0.4234
     5.4897   5.5916   5.8793   6.5797

          k = 0.3333 0.3333 0.0000 (  5395 PWs)   bands (ev):

   -49.8250 -49.8243 -21.7579 -21.7542 -21.7496 -21.7469 -21.7410 -21.7357
    -5.3122  -3.7275  -1.9985  -1.9397  -1.8809  -1.3584  -1.1721  -0.2442
     4.8428   6.2829   6.6870   7.0556

          k = 0.3333-0.5000 0.0749 (  5391 PWs)   bands (ev):

   -49.8248 -49.8244 -21.7572 -21.7553 -21.7494 -21.7471 -21.7397 -21.7369
    -4.8778  -4.1734  -2.5006  -2.0323  -1.5500  -1.2929  -0.9522  -0.4269
     4.9497   5.7630   6.4598   6.9730

          k = 0.3333-0.5000-0.2248 (  5384 PWs)   bands (ev):

   -49.8248 -49.8244 -21.7567 -21.7558 -21.7499 -21.7467 -21.7393 -21.7373
    -4.8706  -4.1925  -2.4726  -1.9028  -1.7385  -1.3386  -0.8013  -0.5009
     5.3713   5.5370   6.2610   6.8275

          k =-0.5000-0.5000 0.4496 (  5378 PWs)   bands (ev):

   -49.8246 -49.8246 -21.7565 -21.7565 -21.7484 -21.7484 -21.7380 -21.7380
    -4.4535  -4.4535  -2.1090  -2.1090  -1.8362  -1.8362  -0.6586  -0.6586
     5.0469   5.0469   7.1981   7.1981

          k =-0.5000-0.5000 0.7494 (  5352 PWs)   bands (ev):

   -49.8246 -49.8246 -21.7565 -21.7565 -21.7484 -21.7484 -21.7380 -21.7380
    -4.4514  -4.4514  -2.2575  -2.2575  -1.5726  -1.5726  -0.7991  -0.7991
     5.3672   5.3672   6.4593   6.4593

          k = 0.3333 0.1667 0.2248 (  5413 PWs)   bands (ev):

   -49.8250 -49.8243 -21.7563 -21.7542 -21.7513 -21.7445 -21.7412 -21.7371
    -5.4336  -4.0543  -2.4681  -1.8301  -1.5486  -0.7522  -0.4564  -0.2469
     5.4931   5.6364   5.9509   6.4099

          k = 0.3333 0.1667-0.0749 (  5405 PWs)   bands (ev):

   -49.8251 -49.8241 -21.7579 -21.7529 -21.7506 -21.7454 -21.7424 -21.7354
    -5.6202  -3.6439  -2.2482  -1.8335  -1.5204  -1.1673  -0.7820  -0.1987
     5.2275   5.9235   6.3412   6.6835

          k = 0.3333 0.1667 0.5246 (  5402 PWs)   bands (ev):

   -49.8248 -49.8245 -21.7563 -21.7543 -21.7496 -21.7456 -21.7406 -21.7383
    -5.1004  -4.5381  -2.7674  -1.9474  -1.0087  -0.5382  -0.4419  -0.2291
     5.3724   5.5138   5.8826   6.3415

          k =-0.5000 0.1667-0.1499 (  5402 PWs)   bands (ev):

   -49.8250 -49.8243 -21.7569 -21.7543 -21.7509 -21.7451 -21.7410 -21.7369
    -5.1935  -4.2010  -2.6134  -1.8363  -1.5208  -0.8747  -0.6464  -0.1617
     5.2484   5.6404   6.1757   6.5273

          k =-0.5000 0.1667-0.4496 (  5391 PWs)   bands (ev):

   -49.8250 -49.8243 -21.7578 -21.7533 -21.7501 -21.7457 -21.7417 -21.7363
    -5.2024  -4.1491  -2.8484  -1.6054  -1.2271  -0.8843  -0.8732  -0.3173
     5.2272   5.9275   6.2493   6.8607

          k =-0.5000 0.3333-0.0749 (  5391 PWs)   bands (ev):

   -49.8248 -49.8244 -21.7571 -21.7555 -21.7492 -21.7473 -21.7395 -21.7370
    -4.8818  -4.1632  -2.4767  -2.0702  -1.6166  -1.2632  -0.9526  -0.3569
     4.9288   5.7099   6.2918   6.8343

     the Fermi energy is    -0.0009 ev

!    total energy              =    -279.14748405 Ry
     estimated scf accuracy    <          2.7E-09 Ry
     smearing contrib. (-TS)   =       0.00035852 Ry
     internal energy E=F+TS    =    -279.14784256 Ry

     The total energy is F=E-TS. E is the sum of the following terms:
     one-electron contribution =    -172.69143372 Ry
     hartree contribution      =      92.93392206 Ry
     xc contribution           =     -39.59926131 Ry
     ewald contribution        =     -90.40844892 Ry
     one-center paw contrib.   =     -69.38262066 Ry

     convergence has been achieved in   8 iterations

     Forces acting on atoms (cartesian axes, Ry/au):

     atom    1 type  1   force =     0.00000000    0.00000000    0.00000000
     atom    2 type  1   force =     0.00000000    0.00000000    0.00000000
     atom    3 type  3   force =     0.00000000    0.00000000    0.00000000
     atom    4 type  3   force =     0.00000000    0.00000000    0.00000000
     atom    5 type  2   force =    -0.00211122   -0.00293482   -0.00269423
     atom    6 type  2   force =    -0.00293482    0.00211122   -0.00269423
     atom    7 type  2   force =    -0.00293482    0.00211122    0.00269423
     atom    8 type  2   force =    -0.00211122   -0.00293482    0.00269423
     atom    9 type  2   force =     0.00211122    0.00293482   -0.00269423
     atom   10 type  2   force =     0.00211122    0.00293482    0.00269423
     atom   11 type  2   force =     0.00293482   -0.00211122    0.00269423
     atom   12 type  2   force =     0.00293482   -0.00211122   -0.00269423

     Total force =     0.012753     Total SCF correction =     0.000000


     Computing stress (Cartesian axis) and pressure

          total   stress  (Ry/bohr**3)                   (kbar)     P=       13.25
   0.00009191  -0.00000000   0.00000000           13.52       -0.00        0.00
   0.00000000   0.00009191   0.00000000            0.00       13.52        0.00
   0.00000000   0.00000000   0.00008635            0.00        0.00       12.70


     Writing output data file ./results/NaAlH4_663_50_250.save/

     init_run     :     12.67s CPU      3.69s WALL (       1 calls)
     electrons    :    279.15s CPU     67.26s WALL (       1 calls)
     forces       :      3.46s CPU      0.89s WALL (       1 calls)
     stress       :     16.29s CPU      4.67s WALL (       1 calls)

     Called by init_run:
     wfcinit      :     11.13s CPU      2.69s WALL (       1 calls)
     potinit      :      0.27s CPU      0.30s WALL (       1 calls)
     hinit0       :      0.62s CPU      0.45s WALL (       1 calls)

     Called by electrons:
     c_bands      :    226.24s CPU     52.23s WALL (       8 calls)
     sum_band     :     46.36s CPU     11.38s WALL (       8 calls)
     v_of_rho     :      0.72s CPU      0.40s WALL (       9 calls)
     newd         :      4.66s CPU      1.97s WALL (       9 calls)
     PAW_pot      :      1.58s CPU      1.59s WALL (       9 calls)
     mix_rho      :      0.21s CPU      0.06s WALL (       8 calls)

     Called by c_bands:
     init_us_2    :      8.64s CPU      1.58s WALL (     570 calls)
     cegterg      :    205.41s CPU     47.33s WALL (     240 calls)

     Called by *egterg:
     cdiaghg      :      4.40s CPU      0.55s WALL (    1171 calls)
     h_psi        :    182.04s CPU     45.77s WALL (    1201 calls)
     s_psi        :      6.42s CPU      0.75s WALL (    1201 calls)
     g_psi        :      2.98s CPU      0.34s WALL (     931 calls)

     Called by h_psi:
     h_psi:calbec :      6.94s CPU      1.71s WALL (    1201 calls)
     vloc_psi     :    166.98s CPU     42.86s WALL (    1201 calls)
     add_vuspsi   :      7.16s CPU      1.03s WALL (    1201 calls)

     General routines
     calbec       :      9.46s CPU      2.30s WALL (    1591 calls)
     fft          :      0.35s CPU      0.16s WALL (     140 calls)
     ffts         :      0.16s CPU      0.06s WALL (      17 calls)
     fftw         :    165.70s CPU     43.11s WALL (   33420 calls)
     interpolate  :      0.04s CPU      0.04s WALL (       9 calls)

     Parallel routines

     PWSCF        :   5m11.87s CPU   1m16.73s WALL


   This run was terminated on:  21:18: 7  17Oct2023            

=------------------------------------------------------------------------------=
   JOB DONE.
=------------------------------------------------------------------------------=
