==========================================
SLURM_CLUSTER_NAME = paramganga
SLURM_ARRAY_JOB_ID = 
SLURM_ARRAY_TASK_ID = 
SLURM_ARRAY_TASK_COUNT = 
SLURM_ARRAY_TASK_MAX = 
SLURM_ARRAY_TASK_MIN = 
SLURM_JOB_ACCOUNT = iitr
SLURM_JOB_ID = 174846
SLURM_JOB_NAME = 19280
SLURM_JOB_NODELIST = cn[214-216]
SLURM_JOB_USER = garima.iitr
SLURM_JOB_UID = 38339
SLURM_JOB_PARTITION = small
SLURM_TASK_PID = 25391
SLURM_SUBMIT_DIR = /home/garima.iitr/.cache/.es/compmat/na3gah6
SLURM_CPUS_ON_NODE = 48
SLURM_NTASKS = 144
SLURM_TASK_PID = 25391
==========================================
cn214
 
:: initializing oneAPI environment ...
   slurm_script: BASH_VERSION = 4.2.46(2)-release
   args: Using "$@" for setvars.sh arguments: 
:: advisor -- latest
:: ccl -- latest
:: clck -- latest
:: compiler -- latest
:: dal -- latest
:: debugger -- latest
:: dev-utilities -- latest
:: dnnl -- latest
:: dpcpp-ct -- latest
:: dpl -- latest
:: inspector -- latest
:: intelpython -- latest
:: ipp -- latest
:: ippcp -- latest
:: ipp -- latest
:: itac -- latest
:: mkl -- latest
:: mpi -- latest
:: tbb -- latest
:: vpl -- latest
:: vtune -- latest
:: oneAPI environment initialized ::
 
Job execution start: Fri Dec  1 09:44:09 IST 2023
Job submitted by garima.iitr
The job ID is:174846

     Program PWSCF v.7.1 starts on  1Dec2023 at  9:44:12 

     This program is part of the open-source Quantum ESPRESSO suite
     for quantum simulation of materials; please cite
         "P. Giannozzi et al., J. Phys.:Condens. Matter 21 395502 (2009);
         "P. Giannozzi et al., J. Phys.:Condens. Matter 29 465901 (2017);
         "P. Giannozzi et al., J. Chem. Phys. 152 154105 (2020);
          URL http://www.quantum-espresso.org", 
     in publications or presentations arising from this work. More details at
     http://www.quantum-espresso.org/quote

     Parallel version (MPI & OpenMP), running on     144 processor cores
     Number of MPI processes:               144
     Threads/MPI process:                     1

     MPI processes distributed on     3 nodes
     168612 MiB available memory on the printing compute node when the environment starts
 
     Reading input from na3gah6.in

     Current dimensions of program PWSCF are:
     Max number of different atomic species (ntypx) = 10
     Max number of k-points (npk) =  40000
     Max angular momentum in pseudopotentials (lmaxx) =  4
     file Ga.pbe-dn-kjpaw_psl.1.0.0.UPF: wavefunction(s)  4S renormalized

     IMPORTANT: XC functional enforced from input :
     Exchange-correlation= PBE
                           (   1   4   3   4   0   0   0)
     Any further DFT definition will be discarded
     Please, verify this is what you really want

     Message from routine setup:
     using ibrav=0 with symmetry is DISCOURAGED, use correct ibrav instead
 
     K-points division:     npool     =       2
     R & G space division:  proc/nbgrp/npool/nimage =      72
     Subspace diagonalization in iterative solution of the eigenvalue problem:
     a serial algorithm will be used

 
     Parallelization info
     --------------------
     sticks:   dense  smooth     PW     G-vecs:    dense   smooth      PW
     Min          85      68     18                 7129     5101     714
     Max          86      69     19                 7135     5108     719
     Sum        6157    4913   1333               513491   367409   51587
 
     Using Slab Decomposition
 


     bravais-lattice index     =            0
     lattice parameter (alat)  =      14.0952  a.u.
     unit-cell volume          =    4187.6791 (a.u.)^3
     number of atoms/cell      =           20
     number of atomic types    =            3
     number of electrons       =        92.00
     number of Kohn-Sham states=           55
     kinetic-energy cutoff     =      75.0000  Ry
     charge density cutoff     =     375.0000  Ry
     scf convergence threshold =      1.0E-08
     mixing beta               =       0.7000
     number of iterations used =            8  plain     mixing
     energy convergence thresh.=      1.0E-04
     force convergence thresh. =      1.0E-03
     Exchange-correlation= PBE
                           (   1   4   3   4   0   0   0)
     nstep                     =           50


     celldm(1)=  14.095203  celldm(2)=   0.000000  celldm(3)=   0.000000
     celldm(4)=   0.000000  celldm(5)=   0.000000  celldm(6)=   0.000000

     crystal axes: (cart. coord. in units of alat)
               a(1) = (   1.000000   0.000000   0.000000 )  
               a(2) = (   0.000000   1.037807   0.000000 )  
               a(3) = (  -1.000563   0.000000   1.440930 )  

     reciprocal axes: (cart. coord. in units 2 pi/alat)
               b(1) = (  1.000000  0.000000  0.694387 )  
               b(2) = (  0.000000  0.963570  0.000000 )  
               b(3) = (  0.000000  0.000000  0.693996 )  


     PseudoPot. # 1 for H  read from file:
     /home/garima.iitr/.cache/.es/compmat/nagah4/H.pbe-rrkjus_psl.1.0.0.UPF
     MD5 check sum: 3f4114867bd07edc7f1424d066fc1888
     Pseudo is Ultrasoft, Zval =  1.0
     Generated using &quot;atomic&quot; code by A. Dal Corso  v.6.3MaX
     Using radial grid of  929 points,  2 beta functions with: 
                l(1) =   0
                l(2) =   0
     Q(r) pseudized with 0 coefficients 


     PseudoPot. # 2 for Ga read from file:
     /home/garima.iitr/.cache/.es/compmat/nagah4/Ga.pbe-dn-kjpaw_psl.1.0.0.UPF
     MD5 check sum: 50ce49cbf7e0a40ad8623bf41840a268
     Pseudo is Projector augmented-wave + core cor, Zval = 13.0
     Generated using &quot;atomic&quot; code by A. Dal Corso  v.6.3
     Shape of augmentation charge: PSQ
     Using radial grid of 1205 points,  6 beta functions with: 
                l(1) =   0
                l(2) =   0
                l(3) =   1
                l(4) =   1
                l(5) =   2
                l(6) =   2
     Q(r) pseudized with 0 coefficients 


     PseudoPot. # 3 for Na read from file:
     /home/garima.iitr/.cache/.es/compmat/nagah4/na_pbe_v1.5.uspp.F.UPF
     MD5 check sum: 44600605ef58000f06b90626533354dc
     Pseudo is Ultrasoft, Zval =  9.0
     Generated by new atomic code, or converted to UPF format
     Using radial grid of  819 points,  5 beta functions with: 
                l(1) =   0
                l(2) =   0
                l(3) =   1
                l(4) =   1
                l(5) =   2
     Q(r) pseudized with  8 coefficients,  rinner =    1.250   1.250   1.250
                                                       1.250   1.250

     atomic species   valence    mass     pseudopotential
        H              1.00     1.00750     H ( 1.00)
        Ga            13.00    69.72300     Ga( 1.00)
        Na             9.00    22.98900     Na( 1.00)

      4 Sym. Ops., with inversion, found ( 2 have fractional translation)



   Cartesian axes

     site n.     atom                  positions (alat units)
         1           Ga  tau(   1) = (   0.5000000   0.0000000   0.0000000  )
         2           Ga  tau(   2) = (  -0.0002816   0.5189036   0.7204648  )
         3           Na  tau(   3) = (  -0.5002816   0.0000000   0.7204648  )
         4           Na  tau(   4) = (   0.0000000   0.5189036   0.0000000  )
         5           Na  tau(   5) = (   0.0110312   0.9887397   0.3551459  )
         6           Na  tau(   6) = (  -0.0115944   0.0490675   1.0857837  )
         7           Na  tau(   7) = (   0.4886872   0.4698361   0.3653189  )
         8           Na  tau(   8) = (  -0.4892504   0.5679711   1.0756107  )
         9           H   tau(   9) = (  -0.1616071   0.7962472   0.8112145  )
        10           H   tau(  10) = (   0.1610439   0.2415600   0.6297150  )
        11           H   tau(  11) = (  -0.3392377   0.2773436   1.3501798  )
        12           H   tau(  12) = (   0.3386745   0.7604636   0.0907497  )
        13           H   tau(  13) = (  -0.2285787   0.8616705   1.3783212  )
        14           H   tau(  14) = (   0.2280155   0.1761366   0.0626084  )
        15           H   tau(  15) = (  -0.2722661   0.3427670   0.7830732  )
        16           H   tau(  16) = (   0.2717029   0.6950402   0.6578564  )
        17           H   tau(  17) = (  -0.5999511   0.9883038   1.1286225  )
        18           H   tau(  18) = (   0.5993879   0.0495034   0.3123071  )
        19           H   tau(  19) = (   0.0991063   0.4694002   1.0327719  )
        20           H   tau(  20) = (  -0.0996695   0.5684070   0.4081577  )

     number of k points=    40  Marzari-Vanderbilt smearing, width (Ry)=  0.0050
                       cart. coord. in units 2pi/alat
        k(    1) = (   0.0000000   0.0000000   0.0000000), wk =   0.0185185
        k(    2) = (   0.0000000   0.0000000   0.2313322), wk =   0.0370370
        k(    3) = (   0.0000000   0.1605950   0.0000000), wk =   0.0370370
        k(    4) = (   0.0000000   0.1605950   0.2313322), wk =   0.0740741
        k(    5) = (   0.0000000   0.3211900   0.0000000), wk =   0.0370370
        k(    6) = (   0.0000000   0.3211900   0.2313322), wk =   0.0740741
        k(    7) = (   0.0000000  -0.4817851   0.0000000), wk =   0.0185185
        k(    8) = (   0.0000000  -0.4817851   0.2313322), wk =   0.0370370
        k(    9) = (   0.1666667   0.0000000   0.1157312), wk =   0.0370370
        k(   10) = (   0.1666667   0.0000000   0.3470634), wk =   0.0370370
        k(   11) = (   0.1666667   0.0000000  -0.1156009), wk =   0.0370370
        k(   12) = (   0.1666667   0.1605950   0.1157312), wk =   0.0740741
        k(   13) = (   0.1666667   0.1605950   0.3470634), wk =   0.0740741
        k(   14) = (   0.1666667   0.1605950  -0.1156009), wk =   0.0740741
        k(   15) = (   0.1666667   0.3211900   0.1157312), wk =   0.0740741
        k(   16) = (   0.1666667   0.3211900   0.3470634), wk =   0.0740741
        k(   17) = (   0.1666667   0.3211900  -0.1156009), wk =   0.0740741
        k(   18) = (   0.1666667  -0.4817851   0.1157312), wk =   0.0370370
        k(   19) = (   0.1666667  -0.4817851   0.3470634), wk =   0.0370370
        k(   20) = (   0.1666667  -0.4817851  -0.1156009), wk =   0.0370370
        k(   21) = (   0.3333333   0.0000000   0.2314624), wk =   0.0370370
        k(   22) = (   0.3333333   0.0000000   0.4627946), wk =   0.0370370
        k(   23) = (   0.3333333   0.0000000   0.0001303), wk =   0.0370370
        k(   24) = (   0.3333333   0.1605950   0.2314624), wk =   0.0740741
        k(   25) = (   0.3333333   0.1605950   0.4627946), wk =   0.0740741
        k(   26) = (   0.3333333   0.1605950   0.0001303), wk =   0.0740741
        k(   27) = (   0.3333333   0.3211900   0.2314624), wk =   0.0740741
        k(   28) = (   0.3333333   0.3211900   0.4627946), wk =   0.0740741
        k(   29) = (   0.3333333   0.3211900   0.0001303), wk =   0.0740741
        k(   30) = (   0.3333333  -0.4817851   0.2314624), wk =   0.0370370
        k(   31) = (   0.3333333  -0.4817851   0.4627946), wk =   0.0370370
        k(   32) = (   0.3333333  -0.4817851   0.0001303), wk =   0.0370370
        k(   33) = (  -0.5000000   0.0000000  -0.3471936), wk =   0.0185185
        k(   34) = (  -0.5000000   0.0000000  -0.1158615), wk =   0.0370370
        k(   35) = (  -0.5000000   0.1605950  -0.3471936), wk =   0.0370370
        k(   36) = (  -0.5000000   0.1605950  -0.1158615), wk =   0.0740741
        k(   37) = (  -0.5000000   0.3211900  -0.3471936), wk =   0.0370370
        k(   38) = (  -0.5000000   0.3211900  -0.1158615), wk =   0.0740741
        k(   39) = (  -0.5000000  -0.4817851  -0.3471936), wk =   0.0185185
        k(   40) = (  -0.5000000  -0.4817851  -0.1158615), wk =   0.0370370

     Dense  grid:   513491 G-vectors     FFT dimensions: (  90,  96, 160)

     Smooth grid:   367409 G-vectors     FFT dimensions: (  80,  90, 144)

     Estimated max dynamical RAM per process >      34.47 MB

     Estimated total dynamical RAM >       4.73 GB

     Initial potential from superposition of free atoms

     starting charge      91.9562, renormalised to      92.0000
     Starting wfcs are   60 randomized atomic wfcs
     Checking if some PAW data can be deallocated... 

     total cpu time spent up to now is        2.7 secs

     Self-consistent Calculation

     iteration #  1     ecut=    75.00 Ry     beta= 0.70
     Davidson diagonalization with overlap
     ethr =  1.00E-02,  avg # of iterations =  3.0

     total cpu time spent up to now is        6.2 secs

     total energy              =   -1140.63012897 Ry
     estimated scf accuracy    <       1.15402840 Ry

     iteration #  2     ecut=    75.00 Ry     beta= 0.70
     Davidson diagonalization with overlap
     ethr =  1.25E-03,  avg # of iterations =  2.9

     total cpu time spent up to now is       10.0 secs

     total energy              =   -1140.86822695 Ry
     estimated scf accuracy    <       0.19009710 Ry

     iteration #  3     ecut=    75.00 Ry     beta= 0.70
     Davidson diagonalization with overlap
     ethr =  2.07E-04,  avg # of iterations =  7.6
     Minimization algorithm failed to find Fermi energy: reverting to bisection
     Possible cause: smearing is larger than the electronic band-gap.

     total cpu time spent up to now is       14.5 secs

     total energy              =   -1140.92130839 Ry
     estimated scf accuracy    <       0.04002238 Ry

     iteration #  4     ecut=    75.00 Ry     beta= 0.70
     Davidson diagonalization with overlap
     c_bands:  2 eigenvalues not converged
     c_bands:  1 eigenvalues not converged
     c_bands:  1 eigenvalues not converged
     ethr =  4.35E-05,  avg # of iterations =  8.9

     total cpu time spent up to now is       19.4 secs

     total energy              =   -1140.93390841 Ry
     estimated scf accuracy    <       0.01431202 Ry

     iteration #  5     ecut=    75.00 Ry     beta= 0.70
     Davidson diagonalization with overlap
     ethr =  1.56E-05,  avg # of iterations =  5.7
     Minimization algorithm failed to find Fermi energy: reverting to bisection
     Possible cause: smearing is larger than the electronic band-gap.

     total cpu time spent up to now is       23.3 secs

     total energy              =   -1140.93598430 Ry
     estimated scf accuracy    <       0.00168446 Ry

     iteration #  6     ecut=    75.00 Ry     beta= 0.70
     Davidson diagonalization with overlap
     c_bands:  2 eigenvalues not converged
     c_bands:  1 eigenvalues not converged
     ethr =  1.83E-06,  avg # of iterations = 10.7
     Minimization algorithm failed to find Fermi energy: reverting to bisection
     Possible cause: smearing is larger than the electronic band-gap.

     total cpu time spent up to now is       28.6 secs

     total energy              =   -1140.93588236 Ry
     estimated scf accuracy    <       0.00535220 Ry

     iteration #  7     ecut=    75.00 Ry     beta= 0.70
     Davidson diagonalization with overlap
     ethr =  1.83E-06,  avg # of iterations =  3.6
     Minimization algorithm failed to find Fermi energy: reverting to bisection
     Possible cause: smearing is larger than the electronic band-gap.

     total cpu time spent up to now is       32.4 secs

     total energy              =   -1140.93655570 Ry
     estimated scf accuracy    <       0.00007843 Ry

     iteration #  8     ecut=    75.00 Ry     beta= 0.70
     Davidson diagonalization with overlap
     ethr =  8.52E-08,  avg # of iterations =  6.2
     Minimization algorithm failed to find Fermi energy: reverting to bisection
     Possible cause: smearing is larger than the electronic band-gap.

     total cpu time spent up to now is       37.3 secs

     total energy              =   -1140.93662223 Ry
     estimated scf accuracy    <       0.00002300 Ry

     iteration #  9     ecut=    75.00 Ry     beta= 0.70
     Davidson diagonalization with overlap
     ethr =  2.50E-08,  avg # of iterations =  4.2
     Minimization algorithm failed to find Fermi energy: reverting to bisection
     Possible cause: smearing is larger than the electronic band-gap.

     total cpu time spent up to now is       41.0 secs

     total energy              =   -1140.93662420 Ry
     estimated scf accuracy    <       0.00000184 Ry

     iteration # 10     ecut=    75.00 Ry     beta= 0.70
     Davidson diagonalization with overlap
     ethr =  2.00E-09,  avg # of iterations =  6.1
     Minimization algorithm failed to find Fermi energy: reverting to bisection
     Possible cause: smearing is larger than the electronic band-gap.

     total cpu time spent up to now is       45.8 secs

     total energy              =   -1140.93662519 Ry
     estimated scf accuracy    <       0.00000053 Ry

     iteration # 11     ecut=    75.00 Ry     beta= 0.70
     Davidson diagonalization with overlap
     ethr =  5.75E-10,  avg # of iterations =  5.4
     Minimization algorithm failed to find Fermi energy: reverting to bisection
     Possible cause: smearing is larger than the electronic band-gap.

     total cpu time spent up to now is       50.2 secs

     total energy              =   -1140.93662528 Ry
     estimated scf accuracy    <       0.00000066 Ry

     iteration # 12     ecut=    75.00 Ry     beta= 0.70
     Davidson diagonalization with overlap
     ethr =  5.75E-10,  avg # of iterations =  5.0
     Minimization algorithm failed to find Fermi energy: reverting to bisection
     Possible cause: smearing is larger than the electronic band-gap.

     total cpu time spent up to now is       54.4 secs

     total energy              =   -1140.93662536 Ry
     estimated scf accuracy    <       0.00000004 Ry

     iteration # 13     ecut=    75.00 Ry     beta= 0.70
     Davidson diagonalization with overlap
     ethr =  3.81E-11,  avg # of iterations =  4.1
     Minimization algorithm failed to find Fermi energy: reverting to bisection
     Possible cause: smearing is larger than the electronic band-gap.

     total cpu time spent up to now is       58.1 secs

     total energy              =   -1140.93662537 Ry
     estimated scf accuracy    <       0.00000002 Ry

     iteration # 14     ecut=    75.00 Ry     beta= 0.70
     Davidson diagonalization with overlap
     ethr =  1.77E-11,  avg # of iterations =  3.8
     Minimization algorithm failed to find Fermi energy: reverting to bisection
     Possible cause: smearing is larger than the electronic band-gap.

     total cpu time spent up to now is       61.8 secs

     End of self-consistent calculation

          k = 0.0000 0.0000 0.0000 ( 45919 PWs)   bands (ev):

   -54.6811 -54.6811 -54.6811 -54.6811 -54.4211 -54.4211 -26.5859 -26.5858
   -26.5858 -26.5857 -26.5840 -26.5840 -26.5840 -26.5840 -26.5735 -26.5735
   -26.5735 -26.5735 -26.3278 -26.3278 -26.3248 -26.3248 -26.3207 -26.3207
   -16.1310 -16.1310 -16.1302 -16.1302 -16.1296 -16.1296 -16.1248 -16.1248
   -16.1222 -16.1222  -6.3803  -6.2817  -3.2907  -3.0710  -3.0356  -2.8470
    -2.8300  -2.7819  -2.5285  -2.1738  -2.1342  -2.0158  -1.9078  -0.7950
     0.8935   1.4676   1.5076   1.7978   2.0052   2.0430   2.0992

          k = 0.0000 0.0000 0.2313 ( 45918 PWs)   bands (ev):

   -54.6811 -54.6811 -54.6811 -54.6811 -54.4211 -54.4211 -26.5858 -26.5858
   -26.5858 -26.5858 -26.5840 -26.5840 -26.5840 -26.5840 -26.5735 -26.5735
   -26.5735 -26.5735 -26.3278 -26.3278 -26.3248 -26.3248 -26.3207 -26.3207
   -16.1310 -16.1310 -16.1302 -16.1302 -16.1296 -16.1296 -16.1248 -16.1248
   -16.1222 -16.1222  -6.3561  -6.3068  -3.2507  -3.1017  -2.9955  -2.9374
    -2.9004  -2.8884  -2.3664  -2.1185  -2.0741  -1.9627  -1.7633  -1.1346
     1.0077   1.2872   1.5134   1.6194   1.8894   2.0414   2.0825

          k = 0.0000 0.1606 0.0000 ( 45916 PWs)   bands (ev):

   -54.6811 -54.6811 -54.6811 -54.6811 -54.4211 -54.4211 -26.5859 -26.5858
   -26.5858 -26.5857 -26.5840 -26.5840 -26.5840 -26.5840 -26.5735 -26.5735
   -26.5735 -26.5735 -26.3278 -26.3278 -26.3248 -26.3248 -26.3207 -26.3207
   -16.1310 -16.1310 -16.1302 -16.1302 -16.1296 -16.1296 -16.1248 -16.1248
   -16.1222 -16.1222  -6.3686  -6.2826  -3.2595  -3.1607  -3.0149  -2.9898
    -2.8476  -2.8378  -2.3990  -2.1483  -2.0188  -1.9701  -1.9326  -0.8286
     0.9230   1.4434   1.4737   1.6255   1.6857   2.0312   2.1672

          k = 0.0000 0.1606 0.2313 ( 45952 PWs)   bands (ev):

   -54.6811 -54.6811 -54.6811 -54.6811 -54.4211 -54.4211 -26.5858 -26.5858
   -26.5858 -26.5858 -26.5840 -26.5840 -26.5840 -26.5840 -26.5735 -26.5735
   -26.5735 -26.5735 -26.3278 -26.3278 -26.3248 -26.3248 -26.3207 -26.3207
   -16.1310 -16.1310 -16.1302 -16.1302 -16.1296 -16.1296 -16.1248 -16.1248
   -16.1222 -16.1222  -6.3472  -6.3041  -3.3063  -3.1973  -2.9954  -2.9643
    -2.8906  -2.8247  -2.3031  -2.1290  -2.0735  -1.9947  -1.6677  -1.1304
     1.0243   1.2849   1.4214   1.5211   1.7858   2.0010   2.1662

          k = 0.0000 0.3212 0.0000 ( 45932 PWs)   bands (ev):

   -54.6811 -54.6811 -54.6811 -54.6811 -54.4211 -54.4211 -26.5858 -26.5858
   -26.5857 -26.5857 -26.5840 -26.5840 -26.5840 -26.5840 -26.5735 -26.5735
   -26.5735 -26.5735 -26.3278 -26.3278 -26.3248 -26.3248 -26.3207 -26.3207
   -16.1310 -16.1310 -16.1302 -16.1302 -16.1296 -16.1296 -16.1248 -16.1248
   -16.1222 -16.1222  -6.3398  -6.2894  -3.2923  -3.2170  -3.1667  -2.9541
    -2.9375  -2.8438  -2.2339  -2.1531  -2.0583  -2.0224  -1.5726  -0.9586
     1.0886   1.2692   1.3201   1.3931   1.5422   2.2148   2.2186

          k = 0.0000 0.3212 0.2313 ( 46013 PWs)   bands (ev):

   -54.6811 -54.6811 -54.6811 -54.6811 -54.4211 -54.4211 -26.5858 -26.5858
   -26.5858 -26.5858 -26.5840 -26.5840 -26.5840 -26.5840 -26.5735 -26.5735
   -26.5735 -26.5735 -26.3278 -26.3278 -26.3248 -26.3248 -26.3207 -26.3207
   -16.1310 -16.1310 -16.1302 -16.1302 -16.1296 -16.1296 -16.1248 -16.1248
   -16.1222 -16.1222  -6.3266  -6.3013  -3.4113  -3.3624  -2.9460  -2.9236
    -2.8697  -2.8156  -2.2118  -2.1809  -2.0764  -2.0590  -1.4431  -1.1439
     1.0842   1.1705   1.3012   1.4454   1.6701   2.0851   2.2033

          k = 0.0000-0.4818 0.0000 ( 45908 PWs)   bands (ev):

   -54.6811 -54.6811 -54.6811 -54.6811 -54.4211 -54.4211 -26.5858 -26.5858
   -26.5857 -26.5857 -26.5840 -26.5840 -26.5840 -26.5840 -26.5735 -26.5735
   -26.5735 -26.5735 -26.3278 -26.3278 -26.3248 -26.3248 -26.3207 -26.3207
   -16.1310 -16.1310 -16.1302 -16.1302 -16.1296 -16.1296 -16.1248 -16.1248
   -16.1222 -16.1222  -6.3090  -6.3090  -3.3223  -3.3223  -3.0537  -3.0537
    -2.8844  -2.8844  -2.1525  -2.1525  -2.0791  -2.0791  -1.2164  -1.2164
     1.1660   1.1660   1.3190   1.3190   1.7333   1.7333   2.4271

          k = 0.0000-0.4818 0.2313 ( 45976 PWs)   bands (ev):

   -54.6811 -54.6811 -54.6811 -54.6811 -54.4211 -54.4211 -26.5858 -26.5858
   -26.5858 -26.5858 -26.5840 -26.5840 -26.5840 -26.5840 -26.5735 -26.5735
   -26.5735 -26.5735 -26.3278 -26.3278 -26.3248 -26.3248 -26.3207 -26.3207
   -16.1310 -16.1310 -16.1302 -16.1302 -16.1296 -16.1296 -16.1248 -16.1248
   -16.1222 -16.1222  -6.3080  -6.3080  -3.4456  -3.4456  -2.8879  -2.8879
    -2.8573  -2.8573  -2.1996  -2.1996  -2.0824  -2.0824  -1.2407  -1.2407
     1.0608   1.0608   1.4562   1.4562   1.7118   1.7118   2.3974

          k = 0.1667 0.0000 0.1157 ( 45930 PWs)   bands (ev):

   -54.6811 -54.6811 -54.6811 -54.6811 -54.4211 -54.4211 -26.5858 -26.5858
   -26.5858 -26.5857 -26.5840 -26.5840 -26.5840 -26.5840 -26.5735 -26.5735
   -26.5735 -26.5735 -26.3278 -26.3278 -26.3248 -26.3248 -26.3207 -26.3207
   -16.1310 -16.1310 -16.1302 -16.1302 -16.1296 -16.1296 -16.1248 -16.1248
   -16.1222 -16.1222  -6.3616  -6.2860  -3.3174  -3.0734  -3.0607  -3.0323
    -2.8218  -2.8145  -2.4067  -2.1414  -2.0680  -1.9545  -1.8349  -0.9176
     0.9868   1.3483   1.4201   1.5646   1.7201   2.0066   2.1588

          k = 0.1667 0.0000 0.3471 ( 45939 PWs)   bands (ev):

   -54.6811 -54.6811 -54.6811 -54.6811 -54.4211 -54.4211 -26.5858 -26.5858
   -26.5858 -26.5858 -26.5840 -26.5840 -26.5840 -26.5840 -26.5735 -26.5735
   -26.5735 -26.5735 -26.3278 -26.3278 -26.3248 -26.3248 -26.3207 -26.3207
   -16.1310 -16.1310 -16.1302 -16.1302 -16.1296 -16.1296 -16.1248 -16.1248
   -16.1222 -16.1222  -6.3248  -6.3230  -3.2992  -3.2403  -2.9947  -2.9141
    -2.9023  -2.8673  -2.2118  -2.2111  -2.0748  -1.9967  -1.4144  -1.3679
     1.1397   1.1741   1.2184   1.4755   1.9281   2.0678   2.1532

          k = 0.1667 0.0000-0.1156 ( 45922 PWs)   bands (ev):

   -54.6811 -54.6811 -54.6811 -54.6811 -54.4211 -54.4211 -26.5858 -26.5858
   -26.5858 -26.5857 -26.5840 -26.5840 -26.5840 -26.5840 -26.5735 -26.5735
   -26.5735 -26.5735 -26.3278 -26.3278 -26.3248 -26.3248 -26.3207 -26.3207
   -16.1310 -16.1310 -16.1302 -16.1302 -16.1296 -16.1296 -16.1248 -16.1248
   -16.1222 -16.1222  -6.3607  -6.2870  -3.2529  -3.1357  -3.1271  -2.9748
    -2.8506  -2.7964  -2.3999  -2.0962  -2.0668  -1.9831  -1.8534  -0.8810
     1.0103   1.2384   1.3136   1.6175   1.6705   2.0703   2.1510

          k = 0.1667 0.1606 0.1157 ( 45927 PWs)   bands (ev):

   -54.6811 -54.6811 -54.6811 -54.6811 -54.4211 -54.4211 -26.5858 -26.5858
   -26.5858 -26.5857 -26.5840 -26.5840 -26.5840 -26.5840 -26.5735 -26.5735
   -26.5735 -26.5735 -26.3278 -26.3278 -26.3248 -26.3248 -26.3207 -26.3207
   -16.1310 -16.1310 -16.1302 -16.1302 -16.1296 -16.1296 -16.1248 -16.1248
   -16.1222 -16.1222  -6.3514  -6.2855  -3.2993  -3.1367  -3.0939  -3.0249
    -2.9062  -2.8248  -2.3228  -2.1779  -2.0325  -1.9717  -1.7257  -0.9163
     0.9780   1.3278   1.4520   1.5240   1.6662   2.0139   2.0566

          k = 0.1667 0.1606 0.3471 ( 45911 PWs)   bands (ev):

   -54.6811 -54.6811 -54.6811 -54.6811 -54.4211 -54.4211 -26.5858 -26.5858
   -26.5858 -26.5858 -26.5840 -26.5840 -26.5840 -26.5840 -26.5735 -26.5735
   -26.5735 -26.5735 -26.3278 -26.3278 -26.3248 -26.3248 -26.3207 -26.3207
   -16.1310 -16.1310 -16.1302 -16.1302 -16.1296 -16.1296 -16.1248 -16.1248
   -16.1222 -16.1222  -6.3191  -6.3175  -3.3184  -3.2748  -3.0315  -3.0006
    -2.8500  -2.8399  -2.2006  -2.1614  -2.0988  -2.0258  -1.3553  -1.3176
     1.0866   1.1999   1.2449   1.4177   1.9550   2.0009   2.1853

          k = 0.1667 0.1606-0.1156 ( 45923 PWs)   bands (ev):

   -54.6811 -54.6811 -54.6811 -54.6811 -54.4211 -54.4211 -26.5858 -26.5858
   -26.5858 -26.5857 -26.5840 -26.5840 -26.5840 -26.5840 -26.5735 -26.5735
   -26.5735 -26.5735 -26.3278 -26.3278 -26.3248 -26.3248 -26.3207 -26.3207
   -16.1310 -16.1310 -16.1302 -16.1302 -16.1296 -16.1296 -16.1248 -16.1248
   -16.1222 -16.1222  -6.3506  -6.2863  -3.2541  -3.1651  -3.1117  -3.0414
    -2.9047  -2.8200  -2.3012  -2.1539  -2.0525  -2.0182  -1.7009  -0.8852
     1.0039   1.2402   1.3721   1.4666   1.6421   2.0596   2.2475

          k = 0.1667 0.3212 0.1157 ( 45953 PWs)   bands (ev):

   -54.6811 -54.6811 -54.6811 -54.6811 -54.4211 -54.4211 -26.5858 -26.5858
   -26.5858 -26.5857 -26.5840 -26.5840 -26.5840 -26.5840 -26.5735 -26.5735
   -26.5735 -26.5735 -26.3278 -26.3278 -26.3248 -26.3248 -26.3207 -26.3207
   -16.1310 -16.1310 -16.1302 -16.1302 -16.1296 -16.1296 -16.1248 -16.1248
   -16.1222 -16.1222  -6.3269  -6.2882  -3.3195  -3.2596  -3.1197  -2.9824
    -2.9328  -2.8898  -2.2459  -2.2214  -2.0475  -2.0134  -1.4238  -0.9610
     1.0710   1.2879   1.3939   1.4467   1.4980   2.0025   2.1893

          k = 0.1667 0.3212 0.3471 ( 46002 PWs)   bands (ev):

   -54.6811 -54.6811 -54.6811 -54.6811 -54.4211 -54.4211 -26.5858 -26.5858
   -26.5858 -26.5858 -26.5840 -26.5840 -26.5840 -26.5840 -26.5735 -26.5735
   -26.5735 -26.5735 -26.3278 -26.3278 -26.3248 -26.3248 -26.3207 -26.3207
   -16.1310 -16.1310 -16.1302 -16.1302 -16.1296 -16.1296 -16.1248 -16.1248
   -16.1222 -16.1222  -6.3073  -6.3064  -3.3903  -3.3745  -3.0126  -3.0077
    -2.8421  -2.8291  -2.2110  -2.1635  -2.0873  -2.0813  -1.2311  -1.1973
     1.0709   1.1718   1.2559   1.4560   1.7738   1.7885   2.3325

          k = 0.1667 0.3212-0.1156 ( 45951 PWs)   bands (ev):

   -54.6811 -54.6811 -54.6811 -54.6811 -54.4211 -54.4211 -26.5858 -26.5858
   -26.5858 -26.5857 -26.5840 -26.5840 -26.5840 -26.5840 -26.5735 -26.5735
   -26.5735 -26.5735 -26.3278 -26.3278 -26.3248 -26.3248 -26.3207 -26.3207
   -16.1310 -16.1310 -16.1302 -16.1302 -16.1296 -16.1296 -16.1248 -16.1248
   -16.1222 -16.1222  -6.3264  -6.2887  -3.3152  -3.2715  -3.0852  -3.0164
    -2.9247  -2.8894  -2.2302  -2.1698  -2.1215  -2.0471  -1.3861  -0.9347
     1.1103   1.2216   1.2753   1.4003   1.5337   2.0403   2.1794

          k = 0.1667-0.4818 0.1157 ( 45938 PWs)   bands (ev):

   -54.6811 -54.6811 -54.6811 -54.6811 -54.4211 -54.4211 -26.5858 -26.5858
   -26.5857 -26.5857 -26.5840 -26.5840 -26.5840 -26.5840 -26.5735 -26.5735
   -26.5735 -26.5735 -26.3278 -26.3278 -26.3248 -26.3248 -26.3207 -26.3207
   -16.1310 -16.1310 -16.1302 -16.1302 -16.1296 -16.1296 -16.1248 -16.1248
   -16.1222 -16.1222  -6.3020  -6.3020  -3.3414  -3.3414  -3.0177  -3.0177
    -2.9322  -2.9322  -2.2431  -2.2431  -2.0393  -2.0393  -1.1327  -1.1327
     1.1991   1.1991   1.3889   1.3889   1.6359   1.6359   2.3399

          k = 0.1667-0.4818 0.3471 ( 45968 PWs)   bands (ev):

   -54.6811 -54.6811 -54.6811 -54.6811 -54.4211 -54.4211 -26.5858 -26.5858
   -26.5858 -26.5858 -26.5840 -26.5840 -26.5840 -26.5840 -26.5735 -26.5735
   -26.5735 -26.5735 -26.3278 -26.3278 -26.3248 -26.3248 -26.3207 -26.3207
   -16.1310 -16.1310 -16.1302 -16.1302 -16.1296 -16.1296 -16.1248 -16.1248
   -16.1222 -16.1222  -6.3010  -6.3010  -3.4300  -3.4300  -2.9757  -2.9757
    -2.8488  -2.8488  -2.2104  -2.2104  -2.0869  -2.0869  -1.1488  -1.1488
     1.0942   1.0942   1.4281   1.4281   1.6322   1.6322   2.4446

          k = 0.1667-0.4818-0.1156 ( 45948 PWs)   bands (ev):

   -54.6811 -54.6811 -54.6811 -54.6811 -54.4211 -54.4211 -26.5858 -26.5858
   -26.5857 -26.5857 -26.5840 -26.5840 -26.5840 -26.5840 -26.5735 -26.5735
   -26.5735 -26.5735 -26.3278 -26.3278 -26.3248 -26.3248 -26.3207 -26.3207
   -16.1310 -16.1310 -16.1302 -16.1302 -16.1296 -16.1296 -16.1248 -16.1248
   -16.1222 -16.1222  -6.3020  -6.3020  -3.3461  -3.3461  -3.0025  -3.0025
    -2.9367  -2.9367  -2.2352  -2.2352  -2.0712  -2.0712  -1.1008  -1.1008
     1.2042   1.2042   1.2915   1.2915   1.6642   1.6642   2.4004

          k = 0.3333 0.0000 0.2315 ( 45927 PWs)   bands (ev):

   -54.6811 -54.6811 -54.6811 -54.6811 -54.4211 -54.4211 -26.5858 -26.5858
   -26.5858 -26.5858 -26.5840 -26.5840 -26.5840 -26.5840 -26.5735 -26.5735
   -26.5735 -26.5735 -26.3278 -26.3278 -26.3248 -26.3248 -26.3207 -26.3207
   -16.1310 -16.1310 -16.1302 -16.1302 -16.1296 -16.1296 -16.1248 -16.1248
   -16.1222 -16.1222  -6.3225  -6.2943  -3.4458  -3.3459  -2.9870  -2.9300
    -2.8326  -2.7969  -2.2724  -2.1622  -2.1372  -2.0033  -1.4083  -1.1353
     1.0792   1.1756   1.2531   1.2974   1.6100   2.0339   2.1902

          k = 0.3333 0.0000 0.4628 ( 45925 PWs)   bands (ev):

   -54.6811 -54.6811 -54.6811 -54.6811 -54.4211 -54.4211 -26.5858 -26.5858
   -26.5858 -26.5858 -26.5840 -26.5840 -26.5840 -26.5840 -26.5735 -26.5735
   -26.5735 -26.5735 -26.3278 -26.3278 -26.3248 -26.3248 -26.3207 -26.3207
   -16.1310 -16.1310 -16.1302 -16.1302 -16.1296 -16.1296 -16.1248 -16.1248
   -16.1222 -16.1222  -6.3198  -6.2972  -3.3972  -3.3846  -3.0234  -2.8822
    -2.8697  -2.7976  -2.2318  -2.1733  -2.1196  -2.0476  -1.4169  -1.0872
     0.9949   1.1060   1.2856   1.3107   1.6065   2.0105   2.2232

          k = 0.3333 0.0000 0.0001 ( 45961 PWs)   bands (ev):

   -54.6811 -54.6811 -54.6811 -54.6811 -54.4211 -54.4211 -26.5859 -26.5858
   -26.5857 -26.5857 -26.5840 -26.5840 -26.5840 -26.5840 -26.5735 -26.5735
   -26.5735 -26.5735 -26.3278 -26.3278 -26.3248 -26.3248 -26.3207 -26.3207
   -16.1310 -16.1310 -16.1302 -16.1302 -16.1296 -16.1296 -16.1248 -16.1248
   -16.1222 -16.1222  -6.3345  -6.2838  -3.3232  -3.2502  -3.1560  -2.9983
    -2.8570  -2.8140  -2.3018  -2.1268  -2.0896  -2.0320  -1.5470  -0.9198
     1.0433   1.0995   1.2532   1.5357   1.5664   2.0372   2.2858

          k = 0.3333 0.1606 0.2315 ( 45927 PWs)   bands (ev):

   -54.6811 -54.6811 -54.6811 -54.6811 -54.4211 -54.4211 -26.5858 -26.5858
   -26.5858 -26.5858 -26.5840 -26.5840 -26.5840 -26.5840 -26.5735 -26.5735
   -26.5735 -26.5735 -26.3278 -26.3278 -26.3248 -26.3248 -26.3207 -26.3207
   -16.1310 -16.1310 -16.1302 -16.1302 -16.1296 -16.1296 -16.1248 -16.1248
   -16.1222 -16.1222  -6.3157  -6.2911  -3.4090  -3.3260  -3.0740  -2.9445
    -2.8825  -2.8415  -2.2647  -2.1974  -2.0743  -2.0280  -1.3335  -1.0591
     1.0810   1.1891   1.2803   1.3382   1.5863   1.9467   2.2358

          k = 0.3333 0.1606 0.4628 ( 45932 PWs)   bands (ev):

   -54.6811 -54.6811 -54.6811 -54.6811 -54.4211 -54.4211 -26.5858 -26.5858
   -26.5858 -26.5858 -26.5840 -26.5840 -26.5840 -26.5840 -26.5735 -26.5735
   -26.5735 -26.5735 -26.3278 -26.3278 -26.3248 -26.3248 -26.3207 -26.3207
   -16.1310 -16.1310 -16.1302 -16.1302 -16.1296 -16.1296 -16.1248 -16.1248
   -16.1222 -16.1222  -6.3133  -6.2936  -3.3740  -3.3519  -3.0767  -2.9600
    -2.8924  -2.8350  -2.1980  -2.1642  -2.1422  -2.0750  -1.3005  -1.0410
     1.0574   1.1597   1.2107   1.3445   1.5549   1.9562   2.2575

          k = 0.3333 0.1606 0.0001 ( 45930 PWs)   bands (ev):

   -54.6811 -54.6811 -54.6811 -54.6811 -54.4211 -54.4211 -26.5858 -26.5858
   -26.5857 -26.5857 -26.5840 -26.5840 -26.5840 -26.5840 -26.5735 -26.5735
   -26.5735 -26.5735 -26.3278 -26.3278 -26.3248 -26.3248 -26.3207 -26.3207
   -16.1310 -16.1310 -16.1302 -16.1302 -16.1296 -16.1296 -16.1248 -16.1248
   -16.1222 -16.1222  -6.3262  -6.2820  -3.2930  -3.2481  -3.1335  -3.0490
    -2.9044  -2.8829  -2.2664  -2.2175  -2.0711  -2.0482  -1.4124  -0.8744
     1.0433   1.1327   1.3220   1.4643   1.6256   2.0578   2.1950

          k = 0.3333 0.3212 0.2315 ( 45915 PWs)   bands (ev):

   -54.6811 -54.6811 -54.6811 -54.6811 -54.4211 -54.4211 -26.5858 -26.5858
   -26.5858 -26.5858 -26.5840 -26.5840 -26.5840 -26.5840 -26.5735 -26.5735
   -26.5735 -26.5735 -26.3278 -26.3278 -26.3248 -26.3248 -26.3207 -26.3207
   -16.1310 -16.1310 -16.1302 -16.1302 -16.1296 -16.1296 -16.1248 -16.1248
   -16.1222 -16.1222  -6.3003  -6.2859  -3.3253  -3.2879  -3.1914  -3.0538
    -2.9165  -2.9098  -2.2932  -2.2456  -2.0586  -2.0327  -1.1289  -0.9313
     1.1123   1.1963   1.3125   1.4067   1.5839   1.7247   2.2506

          k = 0.3333 0.3212 0.4628 ( 45920 PWs)   bands (ev):

   -54.6811 -54.6811 -54.6811 -54.6811 -54.4211 -54.4211 -26.5858 -26.5858
   -26.5858 -26.5858 -26.5840 -26.5840 -26.5840 -26.5840 -26.5735 -26.5735
   -26.5735 -26.5735 -26.3278 -26.3278 -26.3248 -26.3248 -26.3207 -26.3207
   -16.1310 -16.1310 -16.1302 -16.1302 -16.1296 -16.1296 -16.1248 -16.1248
   -16.1222 -16.1222  -6.2989  -6.2874  -3.3331  -3.2752  -3.1933  -3.0514
    -2.9213  -2.9087  -2.2833  -2.2228  -2.0841  -2.0709  -1.0672  -0.9394
     1.0872   1.1725   1.3401   1.3863   1.4697   1.7314   2.2918

          k = 0.3333 0.3212 0.0001 ( 45904 PWs)   bands (ev):

   -54.6811 -54.6811 -54.6811 -54.6811 -54.4211 -54.4211 -26.5858 -26.5858
   -26.5857 -26.5857 -26.5840 -26.5840 -26.5840 -26.5840 -26.5735 -26.5735
   -26.5735 -26.5735 -26.3278 -26.3278 -26.3248 -26.3248 -26.3207 -26.3207
   -16.1310 -16.1310 -16.1302 -16.1302 -16.1296 -16.1296 -16.1248 -16.1248
   -16.1222 -16.1222  -6.3069  -6.2810  -3.2692  -3.2589  -3.1120  -3.0744
    -2.9662  -2.9515  -2.3848  -2.3093  -2.0654  -2.0286  -1.1280  -0.8128
     1.0970   1.1963   1.3347   1.5232   1.6527   1.8544   2.1605

          k = 0.3333-0.4818 0.2315 ( 45946 PWs)   bands (ev):

   -54.6811 -54.6811 -54.6811 -54.6811 -54.4211 -54.4211 -26.5858 -26.5858
   -26.5858 -26.5858 -26.5840 -26.5840 -26.5840 -26.5840 -26.5735 -26.5735
   -26.5735 -26.5735 -26.3278 -26.3278 -26.3248 -26.3248 -26.3207 -26.3207
   -16.1310 -16.1310 -16.1302 -16.1302 -16.1296 -16.1296 -16.1248 -16.1248
   -16.1222 -16.1222  -6.2879  -6.2879  -3.2984  -3.2984  -3.1340  -3.1340
    -2.9535  -2.9535  -2.2911  -2.2911  -2.0495  -2.0495  -0.9432  -0.9432
     1.2242   1.2242   1.2984   1.2985   1.6123   1.6123   2.4487

          k = 0.3333-0.4818 0.4628 ( 45952 PWs)   bands (ev):

   -54.6811 -54.6811 -54.6811 -54.6811 -54.4211 -54.4211 -26.5858 -26.5858
   -26.5858 -26.5858 -26.5840 -26.5840 -26.5840 -26.5840 -26.5735 -26.5735
   -26.5735 -26.5735 -26.3278 -26.3278 -26.3248 -26.3248 -26.3207 -26.3207
   -16.1310 -16.1310 -16.1302 -16.1302 -16.1296 -16.1296 -16.1248 -16.1248
   -16.1222 -16.1222  -6.2879  -6.2879  -3.3065  -3.3065  -3.1239  -3.1239
    -2.9483  -2.9483  -2.2989  -2.2989  -2.0610  -2.0610  -0.9166  -0.9166
     1.1353   1.1353   1.3919   1.3919   1.5487   1.5487   2.3837

          k = 0.3333-0.4818 0.0001 ( 45916 PWs)   bands (ev):

   -54.6811 -54.6811 -54.6811 -54.6811 -54.4211 -54.4211 -26.5858 -26.5858
   -26.5857 -26.5857 -26.5840 -26.5840 -26.5840 -26.5840 -26.5735 -26.5735
   -26.5735 -26.5735 -26.3278 -26.3278 -26.3248 -26.3248 -26.3207 -26.3207
   -16.1310 -16.1310 -16.1302 -16.1302 -16.1296 -16.1296 -16.1248 -16.1248
   -16.1222 -16.1222  -6.2888  -6.2888  -3.2900  -3.2900  -3.0312  -3.0312
    -3.0067  -3.0067  -2.4190  -2.4190  -2.0352  -2.0352  -0.8868  -0.8868
     1.1839   1.1839   1.4890   1.4890   1.6158   1.6158   2.2788

          k =-0.5000 0.0000-0.3472 ( 45920 PWs)   bands (ev):

   -54.6811 -54.6811 -54.6811 -54.6811 -54.4211 -54.4211 -26.5858 -26.5858
   -26.5858 -26.5858 -26.5840 -26.5840 -26.5840 -26.5840 -26.5735 -26.5735
   -26.5735 -26.5735 -26.3278 -26.3278 -26.3248 -26.3248 -26.3207 -26.3207
   -16.1310 -16.1310 -16.1302 -16.1302 -16.1296 -16.1296 -16.1248 -16.1248
   -16.1222 -16.1222  -6.3022  -6.2983  -3.5091  -3.4552  -2.9624  -2.8329
    -2.8240  -2.7748  -2.2567  -2.1839  -2.1740  -2.0372  -1.2163  -1.2049
     0.9258   0.9999   1.4249   1.4371   1.5831   1.6038   2.4588

          k =-0.5000 0.0000-0.1159 ( 45899 PWs)   bands (ev):

   -54.6811 -54.6811 -54.6811 -54.6811 -54.4211 -54.4211 -26.5858 -26.5858
   -26.5857 -26.5857 -26.5840 -26.5840 -26.5840 -26.5840 -26.5735 -26.5735
   -26.5735 -26.5735 -26.3278 -26.3278 -26.3248 -26.3248 -26.3207 -26.3207
   -16.1310 -16.1310 -16.1302 -16.1302 -16.1296 -16.1296 -16.1248 -16.1248
   -16.1222 -16.1222  -6.3023  -6.3003  -3.4200  -3.3788  -3.0340  -2.9694
    -2.8568  -2.8148  -2.2126  -2.1745  -2.1327  -2.0630  -1.1917  -1.1846
     0.9905   1.0065   1.3689   1.4555   1.7033   1.7140   2.2632

          k =-0.5000 0.1606-0.3472 ( 45922 PWs)   bands (ev):

   -54.6811 -54.6811 -54.6811 -54.6811 -54.4211 -54.4211 -26.5858 -26.5858
   -26.5858 -26.5858 -26.5840 -26.5840 -26.5840 -26.5840 -26.5735 -26.5735
   -26.5735 -26.5735 -26.3278 -26.3278 -26.3248 -26.3248 -26.3207 -26.3207
   -16.1310 -16.1310 -16.1302 -16.1302 -16.1296 -16.1296 -16.1248 -16.1248
   -16.1222 -16.1222  -6.2971  -6.2938  -3.4672  -3.4180  -3.0085  -2.9060
    -2.8810  -2.8530  -2.2675  -2.1805  -2.0997  -2.0719  -1.1439  -1.1086
     1.0268   1.0751   1.3330   1.3927   1.5494   1.5819   2.4151

          k =-0.5000 0.1606-0.1159 ( 45918 PWs)   bands (ev):

   -54.6811 -54.6811 -54.6811 -54.6811 -54.4211 -54.4211 -26.5858 -26.5858
   -26.5857 -26.5857 -26.5840 -26.5840 -26.5840 -26.5840 -26.5735 -26.5735
   -26.5735 -26.5735 -26.3278 -26.3278 -26.3248 -26.3248 -26.3207 -26.3207
   -16.1310 -16.1310 -16.1302 -16.1302 -16.1296 -16.1296 -16.1248 -16.1248
   -16.1222 -16.1222  -6.2973  -6.2956  -3.3901  -3.3503  -3.0540  -2.9706
    -2.9233  -2.8847  -2.2698  -2.2215  -2.1018  -2.0609  -1.0989  -1.0847
     1.0580   1.0976   1.3378   1.4212   1.6421   1.7019   2.2876

          k =-0.5000 0.3212-0.3472 ( 45918 PWs)   bands (ev):

   -54.6811 -54.6811 -54.6811 -54.6811 -54.4211 -54.4211 -26.5858 -26.5858
   -26.5858 -26.5858 -26.5840 -26.5840 -26.5840 -26.5840 -26.5735 -26.5735
   -26.5735 -26.5735 -26.3278 -26.3278 -26.3248 -26.3248 -26.3207 -26.3207
   -16.1310 -16.1310 -16.1302 -16.1302 -16.1296 -16.1296 -16.1248 -16.1248
   -16.1222 -16.1222  -6.2867  -6.2848  -3.3509  -3.3140  -3.1152  -3.0684
    -2.9832  -2.9794  -2.2899  -2.1582  -2.1373  -2.0457  -0.9752  -0.9074
     1.1112   1.1306   1.3320   1.3761   1.4951   1.5718   2.4400

          k =-0.5000 0.3212-0.1159 ( 45896 PWs)   bands (ev):

   -54.6811 -54.6811 -54.6811 -54.6811 -54.4211 -54.4211 -26.5858 -26.5858
   -26.5857 -26.5857 -26.5840 -26.5840 -26.5840 -26.5840 -26.5735 -26.5735
   -26.5735 -26.5735 -26.3278 -26.3278 -26.3248 -26.3248 -26.3207 -26.3207
   -16.1310 -16.1310 -16.1302 -16.1302 -16.1296 -16.1296 -16.1248 -16.1248
   -16.1222 -16.1222  -6.2871  -6.2861  -3.3299  -3.2953  -3.1020  -3.0282
    -2.9774  -2.9538  -2.4068  -2.3650  -2.0470  -2.0445  -0.9090  -0.8804
     1.1358   1.1888   1.3279   1.5157   1.5226   1.7290   2.3425

          k =-0.5000-0.4818-0.3472 ( 45888 PWs)   bands (ev):

   -54.6811 -54.6811 -54.6811 -54.6811 -54.4211 -54.4211 -26.5858 -26.5858
   -26.5858 -26.5858 -26.5840 -26.5840 -26.5840 -26.5840 -26.5735 -26.5735
   -26.5735 -26.5735 -26.3278 -26.3278 -26.3248 -26.3248 -26.3207 -26.3207
   -16.1310 -16.1310 -16.1302 -16.1302 -16.1296 -16.1296 -16.1248 -16.1248
   -16.1222 -16.1222  -6.2808  -6.2808  -3.2121  -3.2121  -3.1660  -3.1660
    -3.0892  -3.0892  -2.2488  -2.2488  -2.0768  -2.0768  -0.8415  -0.8415
     1.0922   1.0922   1.3514   1.3514   1.6115   1.6115   2.5112

          k =-0.5000-0.4818-0.1159 ( 45914 PWs)   bands (ev):

   -54.6811 -54.6811 -54.6811 -54.6811 -54.4211 -54.4211 -26.5858 -26.5858
   -26.5857 -26.5857 -26.5840 -26.5840 -26.5840 -26.5840 -26.5735 -26.5735
   -26.5735 -26.5735 -26.3278 -26.3278 -26.3248 -26.3248 -26.3207 -26.3207
   -16.1310 -16.1310 -16.1302 -16.1302 -16.1296 -16.1296 -16.1248 -16.1248
   -16.1222 -16.1222  -6.2816  -6.2816  -3.2984  -3.2984  -3.0435  -3.0435
    -3.0157  -3.0157  -2.4572  -2.4572  -2.0370  -2.0370  -0.7925  -0.7925
     1.1568   1.1568   1.3994   1.3994   1.7413   1.7413   2.2931

     the Fermi energy is    -1.9682 ev

!    total energy              =   -1140.93662537 Ry
     estimated scf accuracy    <          2.6E-09 Ry
     smearing contrib. (-TS)   =       0.00202657 Ry
     internal energy E=F+TS    =   -1140.93865194 Ry

     The total energy is F=E-TS. E is the sum of the following terms:
     one-electron contribution =    -917.91119424 Ry
     hartree contribution      =     475.67710376 Ry
     xc contribution           =    -168.77417252 Ry
     ewald contribution        =    -307.84378073 Ry
     one-center paw contrib.   =    -222.08660820 Ry

     convergence has been achieved in  14 iterations

     Forces acting on atoms (cartesian axes, Ry/au):

     atom    1 type  2   force =     0.00000000    0.00000000    0.00000000
     atom    2 type  2   force =     0.00000000    0.00000000    0.00000000
     atom    3 type  3   force =     0.00000000    0.00000000    0.00000000
     atom    4 type  3   force =     0.00000000    0.00000000    0.00000000
     atom    5 type  3   force =    -0.00083813    0.00069133   -0.00154823
     atom    6 type  3   force =     0.00083813   -0.00069133    0.00154823
     atom    7 type  3   force =     0.00083813    0.00069133    0.00154823
     atom    8 type  3   force =    -0.00083813   -0.00069133   -0.00154823
     atom    9 type  1   force =     0.01159778   -0.01975172   -0.00420783
     atom   10 type  1   force =    -0.01159778    0.01975172    0.00420783
     atom   11 type  1   force =    -0.01159778   -0.01975172    0.00420783
     atom   12 type  1   force =     0.01159778    0.01975172   -0.00420783
     atom   13 type  1   force =    -0.02218081    0.01537017    0.00368524
     atom   14 type  1   force =     0.02218081   -0.01537017   -0.00368524
     atom   15 type  1   force =     0.02218081    0.01537017   -0.00368524
     atom   16 type  1   force =    -0.02218081   -0.01537017    0.00368524
     atom   17 type  1   force =     0.00680615    0.00194499    0.02447612
     atom   18 type  1   force =    -0.00680615   -0.00194499   -0.02447612
     atom   19 type  1   force =    -0.00680615    0.00194499   -0.02447612
     atom   20 type  1   force =     0.00680615   -0.00194499    0.02447612

     Total force =     0.088021     Total SCF correction =     0.000003


     Computing stress (Cartesian axis) and pressure

          total   stress  (Ry/bohr**3)                   (kbar)     P=      -54.57
  -0.00037644   0.00000000   0.00000470          -55.38        0.00        0.69
   0.00000000  -0.00037640   0.00000000            0.00      -55.37        0.00
   0.00000470   0.00000000  -0.00036006            0.69        0.00      -52.97


     BFGS Geometry Optimization
     Energy error            =      0.0E+00 Ry
     Gradient error          =      2.4E-02 Ry/Bohr

     number of scf cycles    =   1
     number of bfgs steps    =   0

     energy             new  =   -1140.9366253662 Ry

     new trust radius        =       0.0272362154 bohr
     new conv_thr            =       0.0000000100 Ry


ATOMIC_POSITIONS (crystal)
Ga            0.5000000000        0.0000000000        0.0000000000
Ga            0.5000000000        0.5000000000        0.5000000000
Na            0.0000000000        0.0000000000        0.5000000000
Na            0.0000000000        0.5000000000        0.0000000000
Na            0.2575042658        0.9527672604        0.2463937710
Na            0.7424957342        0.0472327396        0.7536062290
Na            0.7424957342        0.4527672604        0.2536062290
Na            0.2575042658        0.5472327396        0.7463937710
H             0.4023055230        0.7658897414        0.5627728219
H             0.5976944770        0.2341102586        0.4372271781
H             0.5976944770        0.2658897414        0.9372271781
H             0.4023055230        0.7341102586        0.0627728219
H             0.7271179078        0.8313307292        0.9567314479
H             0.2728820922        0.1686692708        0.0432685521
H             0.2728820922        0.3313307292        0.5432685521
H             0.7271179078        0.6686692708        0.4567314479
H             0.1854386634        0.9524329626        0.7844651150
H             0.8145613366        0.0475670374        0.2155348850
H             0.8145613366        0.4524329626        0.7155348850
H             0.1854386634        0.5475670374        0.2844651150



     Writing config-only to output data dir ./na3gah6.save/
     NEW-OLD atomic charge density approx. for the potential
     Minimization algorithm failed to find Fermi energy: reverting to bisection
     Possible cause: smearing is larger than the electronic band-gap.

     total cpu time spent up to now is       63.9 secs

     Self-consistent Calculation

     iteration #  1     ecut=    75.00 Ry     beta= 0.70
     Davidson diagonalization with overlap
     ethr =  1.00E-06,  avg # of iterations =  4.0
     Minimization algorithm failed to find Fermi energy: reverting to bisection
     Possible cause: smearing is larger than the electronic band-gap.

     total cpu time spent up to now is       68.7 secs

     total energy              =   -1140.94431683 Ry
     estimated scf accuracy    <       0.00031085 Ry

     iteration #  2     ecut=    75.00 Ry     beta= 0.70
     Davidson diagonalization with overlap
     ethr =  3.38E-07,  avg # of iterations =  3.8
     Minimization algorithm failed to find Fermi energy: reverting to bisection
     Possible cause: smearing is larger than the electronic band-gap.

     total cpu time spent up to now is       72.7 secs

     total energy              =   -1140.94437164 Ry
     estimated scf accuracy    <       0.00014994 Ry

     iteration #  3     ecut=    75.00 Ry     beta= 0.70
     Davidson diagonalization with overlap
     ethr =  1.63E-07,  avg # of iterations =  2.1
     Minimization algorithm failed to find Fermi energy: reverting to bisection
     Possible cause: smearing is larger than the electronic band-gap.

     total cpu time spent up to now is       76.2 secs

     total energy              =   -1140.94440068 Ry
     estimated scf accuracy    <       0.00005593 Ry

     iteration #  4     ecut=    75.00 Ry     beta= 0.70
     Davidson diagonalization with overlap
     ethr =  6.08E-08,  avg # of iterations =  5.5
     Minimization algorithm failed to find Fermi energy: reverting to bisection
     Possible cause: smearing is larger than the electronic band-gap.

     total cpu time spent up to now is       80.0 secs

     total energy              =   -1140.94441253 Ry
     estimated scf accuracy    <       0.00001776 Ry

     iteration #  5     ecut=    75.00 Ry     beta= 0.70
     Davidson diagonalization with overlap
     ethr =  1.93E-08,  avg # of iterations =  5.9
     Minimization algorithm failed to find Fermi energy: reverting to bisection
     Possible cause: smearing is larger than the electronic band-gap.

     total cpu time spent up to now is       83.8 secs

     total energy              =   -1140.94441626 Ry
     estimated scf accuracy    <       0.00000112 Ry

     iteration #  6     ecut=    75.00 Ry     beta= 0.70
     Davidson diagonalization with overlap
     ethr =  1.21E-09,  avg # of iterations =  4.2
     Minimization algorithm failed to find Fermi energy: reverting to bisection
     Possible cause: smearing is larger than the electronic band-gap.

     total cpu time spent up to now is       87.7 secs

     total energy              =   -1140.94441632 Ry
     estimated scf accuracy    <       0.00000106 Ry

     iteration #  7     ecut=    75.00 Ry     beta= 0.70
     Davidson diagonalization with overlap
     ethr =  1.15E-09,  avg # of iterations =  2.0
     Minimization algorithm failed to find Fermi energy: reverting to bisection
     Possible cause: smearing is larger than the electronic band-gap.

     total cpu time spent up to now is       91.0 secs

     total energy              =   -1140.94441649 Ry
     estimated scf accuracy    <       0.00000021 Ry

     iteration #  8     ecut=    75.00 Ry     beta= 0.70
     Davidson diagonalization with overlap
     ethr =  2.24E-10,  avg # of iterations =  4.2
     Minimization algorithm failed to find Fermi energy: reverting to bisection
     Possible cause: smearing is larger than the electronic band-gap.

     total cpu time spent up to now is       94.6 secs

     End of self-consistent calculation

          k = 0.0000 0.0000 0.0000 ( 45919 PWs)   bands (ev):

   -54.6870 -54.6870 -54.6870 -54.6870 -54.4472 -54.4472 -26.5917 -26.5917
   -26.5916 -26.5916 -26.5898 -26.5898 -26.5898 -26.5898 -26.5793 -26.5793
   -26.5793 -26.5793 -26.3536 -26.3536 -26.3508 -26.3508 -26.3468 -26.3468
   -16.1041 -16.1041 -16.1032 -16.1032 -16.1028 -16.1028 -16.0975 -16.0975
   -16.0953 -16.0952  -6.3825  -6.2844  -3.2881  -3.0698  -3.0352  -2.8487
    -2.8300  -2.7822  -2.5068  -2.1387  -2.1167  -1.9987  -1.8910  -0.7474
     0.8928   1.4567   1.5157   1.7779   2.0277   2.0661   2.1194

          k = 0.0000 0.0000 0.2313 ( 45918 PWs)   bands (ev):

   -54.6870 -54.6870 -54.6870 -54.6870 -54.4472 -54.4472 -26.5917 -26.5917
   -26.5917 -26.5916 -26.5898 -26.5898 -26.5898 -26.5898 -26.5793 -26.5793
   -26.5793 -26.5793 -26.3536 -26.3536 -26.3508 -26.3508 -26.3468 -26.3468
   -16.1041 -16.1041 -16.1032 -16.1032 -16.1028 -16.1028 -16.0975 -16.0975
   -16.0953 -16.0952  -6.3584  -6.3093  -3.2467  -3.0991  -2.9955  -2.9340
    -2.9015  -2.8871  -2.3468  -2.1005  -2.0572  -1.9462  -1.7314  -1.0955
     1.0072   1.2899   1.5103   1.6229   1.8833   2.0623   2.1020

          k = 0.0000 0.1606 0.0000 ( 45916 PWs)   bands (ev):

   -54.6870 -54.6870 -54.6870 -54.6870 -54.4472 -54.4472 -26.5917 -26.5917
   -26.5916 -26.5916 -26.5898 -26.5898 -26.5898 -26.5898 -26.5793 -26.5793
   -26.5793 -26.5793 -26.3536 -26.3536 -26.3508 -26.3508 -26.3468 -26.3468
   -16.1041 -16.1041 -16.1032 -16.1032 -16.1028 -16.1028 -16.0975 -16.0975
   -16.0953 -16.0952  -6.3709  -6.2852  -3.2571  -3.1568  -3.0140  -2.9862
    -2.8484  -2.8382  -2.3805  -2.1306  -2.0019  -1.9420  -1.9112  -0.7809
     0.9219   1.4330   1.4731   1.6145   1.6943   2.0522   2.1903

          k = 0.0000 0.1606 0.2313 ( 45952 PWs)   bands (ev):

   -54.6870 -54.6870 -54.6870 -54.6870 -54.4472 -54.4472 -26.5917 -26.5917
   -26.5917 -26.5916 -26.5898 -26.5898 -26.5898 -26.5898 -26.5793 -26.5793
   -26.5793 -26.5793 -26.3536 -26.3536 -26.3508 -26.3508 -26.3468 -26.3468
   -16.1041 -16.1041 -16.1032 -16.1032 -16.1028 -16.1028 -16.0975 -16.0975
   -16.0953 -16.0952  -6.3495  -6.3067  -3.3013  -3.1925  -2.9937  -2.9642
    -2.8921  -2.8249  -2.2838  -2.1111  -2.0560  -1.9779  -1.6347  -1.0901
     1.0221   1.2834   1.4186   1.5251   1.7814   2.0142   2.1917

          k = 0.0000 0.3212 0.0000 ( 45932 PWs)   bands (ev):

   -54.6870 -54.6870 -54.6870 -54.6870 -54.4472 -54.4472 -26.5917 -26.5917
   -26.5916 -26.5916 -26.5898 -26.5898 -26.5898 -26.5898 -26.5793 -26.5793
   -26.5793 -26.5793 -26.3536 -26.3536 -26.3508 -26.3508 -26.3468 -26.3468
   -16.1041 -16.1041 -16.1032 -16.1032 -16.1028 -16.1028 -16.0975 -16.0975
   -16.0952 -16.0952  -6.3422  -6.2921  -3.2863  -3.2122  -3.1628  -2.9549
    -2.9361  -2.8467  -2.2161  -2.1353  -2.0415  -2.0047  -1.5386  -0.9129
     1.0832   1.2673   1.3210   1.3848   1.5362   2.2213   2.2417

          k = 0.0000 0.3212 0.2313 ( 46013 PWs)   bands (ev):

   -54.6870 -54.6870 -54.6870 -54.6870 -54.4472 -54.4472 -26.5917 -26.5917
   -26.5916 -26.5916 -26.5898 -26.5898 -26.5898 -26.5898 -26.5793 -26.5793
   -26.5793 -26.5793 -26.3536 -26.3536 -26.3508 -26.3508 -26.3468 -26.3468
   -16.1041 -16.1041 -16.1032 -16.1032 -16.1028 -16.1028 -16.0975 -16.0975
   -16.0953 -16.0953  -6.3290  -6.3039  -3.4050  -3.3561  -2.9453  -2.9242
    -2.8723  -2.8169  -2.1929  -2.1619  -2.0590  -2.0412  -1.4064  -1.1017
     1.0725   1.1606   1.3061   1.4487   1.6698   2.0906   2.2175

          k = 0.0000-0.4818 0.0000 ( 45908 PWs)   bands (ev):

   -54.6870 -54.6870 -54.6870 -54.6870 -54.4472 -54.4472 -26.5917 -26.5917
   -26.5916 -26.5916 -26.5898 -26.5898 -26.5898 -26.5898 -26.5793 -26.5793
   -26.5793 -26.5793 -26.3536 -26.3536 -26.3508 -26.3508 -26.3468 -26.3468
   -16.1041 -16.1041 -16.1032 -16.1032 -16.1028 -16.1028 -16.0975 -16.0975
   -16.0952 -16.0952  -6.3116  -6.3116  -3.3158  -3.3158  -3.0517  -3.0517
    -2.8865  -2.8865  -2.1346  -2.1346  -2.0621  -2.0621  -1.1762  -1.1762
     1.1609   1.1609   1.3139   1.3139   1.7349   1.7349   2.4543

          k = 0.0000-0.4818 0.2313 ( 45976 PWs)   bands (ev):

   -54.6870 -54.6870 -54.6870 -54.6870 -54.4472 -54.4472 -26.5917 -26.5917
   -26.5916 -26.5916 -26.5898 -26.5898 -26.5898 -26.5898 -26.5793 -26.5793
   -26.5793 -26.5793 -26.3536 -26.3536 -26.3508 -26.3508 -26.3468 -26.3468
   -16.1041 -16.1041 -16.1032 -16.1032 -16.1028 -16.1028 -16.0975 -16.0975
   -16.0953 -16.0953  -6.3106  -6.3106  -3.4389  -3.4389  -2.8885  -2.8885
    -2.8596  -2.8596  -2.1803  -2.1803  -2.0646  -2.0646  -1.1998  -1.1998
     1.0490   1.0490   1.4559   1.4559   1.7176   1.7176   2.4194

          k = 0.1667 0.0000 0.1157 ( 45930 PWs)   bands (ev):

   -54.6870 -54.6870 -54.6870 -54.6870 -54.4472 -54.4472 -26.5917 -26.5917
   -26.5916 -26.5916 -26.5898 -26.5898 -26.5898 -26.5898 -26.5793 -26.5793
   -26.5793 -26.5793 -26.3536 -26.3536 -26.3508 -26.3508 -26.3468 -26.3468
   -16.1041 -16.1041 -16.1032 -16.1032 -16.1028 -16.1028 -16.0975 -16.0975
   -16.0953 -16.0952  -6.3639  -6.2886  -3.3139  -3.0693  -3.0592  -3.0326
    -2.8218  -2.8142  -2.3874  -2.1240  -2.0484  -1.9368  -1.8053  -0.8721
     0.9852   1.3564   1.4085   1.5664   1.7109   2.0218   2.1807

          k = 0.1667 0.0000 0.3471 ( 45939 PWs)   bands (ev):

   -54.6870 -54.6870 -54.6870 -54.6870 -54.4472 -54.4472 -26.5917 -26.5917
   -26.5916 -26.5916 -26.5898 -26.5898 -26.5898 -26.5898 -26.5793 -26.5793
   -26.5793 -26.5793 -26.3536 -26.3536 -26.3508 -26.3508 -26.3468 -26.3468
   -16.1041 -16.1041 -16.1032 -16.1032 -16.1028 -16.1028 -16.0975 -16.0975
   -16.0953 -16.0952  -6.3273  -6.3254  -3.2948  -3.2350  -2.9968  -2.9129
    -2.8997  -2.8678  -2.1930  -2.1928  -2.0582  -1.9799  -1.3779  -1.3316
     1.1388   1.1766   1.2144   1.4753   1.9359   2.0744   2.1614

          k = 0.1667 0.0000-0.1156 ( 45922 PWs)   bands (ev):

   -54.6870 -54.6870 -54.6870 -54.6870 -54.4472 -54.4472 -26.5917 -26.5917
   -26.5916 -26.5916 -26.5898 -26.5898 -26.5898 -26.5898 -26.5793 -26.5793
   -26.5793 -26.5793 -26.3536 -26.3536 -26.3508 -26.3508 -26.3468 -26.3468
   -16.1041 -16.1041 -16.1032 -16.1032 -16.1028 -16.1028 -16.0975 -16.0975
   -16.0952 -16.0952  -6.3630  -6.2896  -3.2492  -3.1343  -3.1253  -2.9717
    -2.8502  -2.7974  -2.3802  -2.0789  -2.0491  -1.9659  -1.8217  -0.8348
     1.0090   1.2308   1.3167   1.6274   1.6590   2.0845   2.1674

          k = 0.1667 0.1606 0.1157 ( 45927 PWs)   bands (ev):

   -54.6870 -54.6870 -54.6870 -54.6870 -54.4472 -54.4472 -26.5917 -26.5917
   -26.5916 -26.5916 -26.5898 -26.5898 -26.5898 -26.5898 -26.5793 -26.5793
   -26.5793 -26.5793 -26.3536 -26.3536 -26.3508 -26.3508 -26.3468 -26.3468
   -16.1041 -16.1041 -16.1032 -16.1032 -16.1028 -16.1028 -16.0975 -16.0975
   -16.0952 -16.0952  -6.3537  -6.2881  -3.2956  -3.1333  -3.0905  -3.0233
    -2.9060  -2.8251  -2.3053  -2.1600  -2.0152  -1.9549  -1.6930  -0.8699
     0.9758   1.3232   1.4443   1.5261   1.6613   2.0328   2.0709

          k = 0.1667 0.1606 0.3471 ( 45911 PWs)   bands (ev):

   -54.6870 -54.6870 -54.6870 -54.6870 -54.4472 -54.4472 -26.5917 -26.5917
   -26.5916 -26.5916 -26.5898 -26.5898 -26.5898 -26.5898 -26.5793 -26.5793
   -26.5793 -26.5793 -26.3536 -26.3536 -26.3508 -26.3508 -26.3468 -26.3468
   -16.1041 -16.1041 -16.1032 -16.1032 -16.1028 -16.1028 -16.0975 -16.0975
   -16.0952 -16.0952  -6.3216  -6.3200  -3.3135  -3.2689  -3.0326  -2.9981
    -2.8502  -2.8408  -2.1817  -2.1434  -2.0820  -2.0089  -1.3173  -1.2801
     1.0830   1.1999   1.2432   1.4139   1.9578   2.0025   2.2048

          k = 0.1667 0.1606-0.1156 ( 45923 PWs)   bands (ev):

   -54.6870 -54.6870 -54.6870 -54.6870 -54.4472 -54.4472 -26.5917 -26.5917
   -26.5916 -26.5916 -26.5898 -26.5898 -26.5898 -26.5898 -26.5793 -26.5793
   -26.5793 -26.5793 -26.3536 -26.3536 -26.3508 -26.3508 -26.3468 -26.3468
   -16.1041 -16.1041 -16.1032 -16.1032 -16.1028 -16.1028 -16.0975 -16.0975
   -16.0952 -16.0952  -6.3530  -6.2890  -3.2500  -3.1621  -3.1108  -3.0368
    -2.9047  -2.8200  -2.2836  -2.1355  -2.0354  -2.0016  -1.6682  -0.8386
     1.0028   1.2333   1.3734   1.4643   1.6324   2.0809   2.2700

          k = 0.1667 0.3212 0.1157 ( 45953 PWs)   bands (ev):

   -54.6870 -54.6870 -54.6870 -54.6870 -54.4472 -54.4472 -26.5917 -26.5917
   -26.5916 -26.5916 -26.5898 -26.5898 -26.5898 -26.5898 -26.5793 -26.5793
   -26.5793 -26.5793 -26.3536 -26.3536 -26.3508 -26.3508 -26.3468 -26.3468
   -16.1041 -16.1041 -16.1032 -16.1032 -16.1028 -16.1028 -16.0975 -16.0975
   -16.0953 -16.0952  -6.3294  -6.2909  -3.3141  -3.2540  -3.1175  -2.9811
    -2.9343  -2.8896  -2.2277  -2.2043  -2.0304  -1.9961  -1.3882  -0.9149
     1.0626   1.2839   1.3873   1.4457   1.4963   2.0087   2.2031

          k = 0.1667 0.3212 0.3471 ( 46002 PWs)   bands (ev):

   -54.6870 -54.6870 -54.6870 -54.6870 -54.4472 -54.4472 -26.5917 -26.5917
   -26.5917 -26.5917 -26.5898 -26.5898 -26.5898 -26.5898 -26.5793 -26.5793
   -26.5793 -26.5793 -26.3536 -26.3536 -26.3508 -26.3508 -26.3468 -26.3468
   -16.1041 -16.1041 -16.1032 -16.1032 -16.1028 -16.1028 -16.0975 -16.0975
   -16.0953 -16.0952  -6.3099  -6.3089  -3.3843  -3.3681  -3.0134  -3.0066
    -2.8422  -2.8311  -2.1916  -2.1464  -2.0696  -2.0637  -1.1904  -1.1565
     1.0594   1.1652   1.2523   1.4577   1.7752   1.7905   2.3614

          k = 0.1667 0.3212-0.1156 ( 45951 PWs)   bands (ev):

   -54.6870 -54.6870 -54.6870 -54.6870 -54.4472 -54.4472 -26.5917 -26.5917
   -26.5916 -26.5916 -26.5898 -26.5898 -26.5898 -26.5898 -26.5793 -26.5793
   -26.5793 -26.5793 -26.3536 -26.3536 -26.3508 -26.3508 -26.3468 -26.3468
   -16.1041 -16.1041 -16.1032 -16.1032 -16.1028 -16.1028 -16.0975 -16.0975
   -16.0952 -16.0952  -6.3289  -6.2914  -3.3098  -3.2661  -3.0832  -3.0153
    -2.9257  -2.8888  -2.2111  -2.1542  -2.1030  -2.0303  -1.3501  -0.8886
     1.1066   1.2181   1.2708   1.3881   1.5342   2.0461   2.1950

          k = 0.1667-0.4818 0.1157 ( 45938 PWs)   bands (ev):

   -54.6870 -54.6870 -54.6870 -54.6870 -54.4472 -54.4472 -26.5917 -26.5917
   -26.5916 -26.5916 -26.5898 -26.5898 -26.5898 -26.5898 -26.5793 -26.5793
   -26.5793 -26.5793 -26.3536 -26.3536 -26.3508 -26.3508 -26.3468 -26.3468
   -16.1041 -16.1041 -16.1032 -16.1032 -16.1028 -16.1028 -16.0975 -16.0975
   -16.0952 -16.0952  -6.3046  -6.3046  -3.3353  -3.3353  -3.0169  -3.0169
    -2.9325  -2.9325  -2.2250  -2.2250  -2.0222  -2.0222  -1.0912  -1.0912
     1.1885   1.1885   1.3886   1.3886   1.6363   1.6363   2.3590

          k = 0.1667-0.4818 0.3471 ( 45968 PWs)   bands (ev):

   -54.6870 -54.6870 -54.6870 -54.6870 -54.4472 -54.4472 -26.5917 -26.5917
   -26.5917 -26.5917 -26.5898 -26.5898 -26.5898 -26.5898 -26.5793 -26.5793
   -26.5793 -26.5793 -26.3536 -26.3536 -26.3508 -26.3508 -26.3468 -26.3468
   -16.1041 -16.1041 -16.1032 -16.1032 -16.1028 -16.1028 -16.0975 -16.0975
   -16.0952 -16.0952  -6.3036  -6.3036  -3.4235  -3.4235  -2.9766  -2.9766
    -2.8493  -2.8493  -2.1922  -2.1922  -2.0687  -2.0687  -1.1063  -1.1063
     1.0806   1.0806   1.4264   1.4264   1.6372   1.6372   2.4737

          k = 0.1667-0.4818-0.1156 ( 45948 PWs)   bands (ev):

   -54.6870 -54.6870 -54.6870 -54.6870 -54.4472 -54.4472 -26.5917 -26.5917
   -26.5916 -26.5916 -26.5898 -26.5898 -26.5898 -26.5898 -26.5793 -26.5793
   -26.5793 -26.5793 -26.3536 -26.3536 -26.3508 -26.3508 -26.3468 -26.3468
   -16.1041 -16.1041 -16.1032 -16.1032 -16.1028 -16.1028 -16.0975 -16.0975
   -16.0952 -16.0952  -6.3046  -6.3046  -3.3402  -3.3402  -3.0013  -3.0013
    -2.9374  -2.9374  -2.2164  -2.2164  -2.0545  -2.0545  -1.0590  -1.0590
     1.1941   1.1941   1.2906   1.2906   1.6631   1.6631   2.4229

          k = 0.3333 0.0000 0.2315 ( 45927 PWs)   bands (ev):

   -54.6870 -54.6870 -54.6870 -54.6870 -54.4472 -54.4472 -26.5917 -26.5917
   -26.5916 -26.5916 -26.5898 -26.5898 -26.5898 -26.5898 -26.5793 -26.5793
   -26.5793 -26.5793 -26.3536 -26.3536 -26.3508 -26.3508 -26.3468 -26.3468
   -16.1041 -16.1041 -16.1032 -16.1032 -16.1028 -16.1028 -16.0975 -16.0975
   -16.0952 -16.0952  -6.3250  -6.2969  -3.4412  -3.3405  -2.9885  -2.9298
    -2.8317  -2.7976  -2.2538  -2.1450  -2.1177  -1.9859  -1.3714  -1.0917
     1.0813   1.1627   1.2516   1.2947   1.6164   2.0375   2.1990

          k = 0.3333 0.0000 0.4628 ( 45925 PWs)   bands (ev):

   -54.6870 -54.6870 -54.6870 -54.6870 -54.4472 -54.4472 -26.5917 -26.5917
   -26.5916 -26.5916 -26.5898 -26.5898 -26.5898 -26.5898 -26.5793 -26.5793
   -26.5793 -26.5793 -26.3536 -26.3536 -26.3508 -26.3508 -26.3468 -26.3468
   -16.1041 -16.1041 -16.1032 -16.1032 -16.1028 -16.1028 -16.0975 -16.0975
   -16.0952 -16.0952  -6.3223  -6.2998  -3.3926  -3.3792  -3.0248  -2.8816
    -2.8681  -2.7989  -2.2125  -2.1550  -2.1026  -2.0300  -1.3786  -1.0441
     0.9905   1.0986   1.2813   1.3183   1.6044   2.0158   2.2312

          k = 0.3333 0.0000 0.0001 ( 45961 PWs)   bands (ev):

   -54.6870 -54.6870 -54.6870 -54.6870 -54.4472 -54.4472 -26.5917 -26.5917
   -26.5916 -26.5916 -26.5898 -26.5898 -26.5898 -26.5898 -26.5793 -26.5793
   -26.5793 -26.5793 -26.3536 -26.3536 -26.3508 -26.3508 -26.3468 -26.3468
   -16.1041 -16.1041 -16.1032 -16.1032 -16.1028 -16.1028 -16.0975 -16.0975
   -16.0952 -16.0952  -6.3369  -6.2864  -3.3195  -3.2464  -3.1535  -2.9975
    -2.8556  -2.8144  -2.2832  -2.1093  -2.0720  -2.0153  -1.5122  -0.8725
     1.0352   1.1016   1.2483   1.5355   1.5574   2.0554   2.2900

          k = 0.3333 0.1606 0.2315 ( 45927 PWs)   bands (ev):

   -54.6870 -54.6870 -54.6870 -54.6870 -54.4472 -54.4472 -26.5917 -26.5917
   -26.5916 -26.5916 -26.5898 -26.5898 -26.5898 -26.5898 -26.5793 -26.5793
   -26.5793 -26.5793 -26.3536 -26.3536 -26.3508 -26.3508 -26.3468 -26.3468
   -16.1041 -16.1041 -16.1032 -16.1032 -16.1028 -16.1028 -16.0975 -16.0975
   -16.0952 -16.0952  -6.3182  -6.2937  -3.4046  -3.3205  -3.0732  -2.9444
    -2.8817  -2.8415  -2.2462  -2.1801  -2.0568  -2.0108  -1.2954  -1.0143
     1.0801   1.1776   1.2807   1.3301   1.5899   1.9491   2.2509

          k = 0.3333 0.1606 0.4628 ( 45932 PWs)   bands (ev):

   -54.6870 -54.6870 -54.6870 -54.6870 -54.4472 -54.4472 -26.5917 -26.5917
   -26.5916 -26.5916 -26.5898 -26.5898 -26.5898 -26.5898 -26.5793 -26.5793
   -26.5793 -26.5793 -26.3536 -26.3536 -26.3508 -26.3508 -26.3468 -26.3468
   -16.1041 -16.1041 -16.1032 -16.1032 -16.1028 -16.1028 -16.0975 -16.0975
   -16.0952 -16.0952  -6.3158  -6.2962  -3.3696  -3.3467  -3.0764  -2.9585
    -2.8912  -2.8355  -2.1790  -2.1476  -2.1240  -2.0582  -1.2613  -0.9970
     1.0492   1.1574   1.2141   1.3378   1.5509   1.9551   2.2736

          k = 0.3333 0.1606 0.0001 ( 45930 PWs)   bands (ev):

   -54.6870 -54.6870 -54.6870 -54.6870 -54.4472 -54.4472 -26.5917 -26.5917
   -26.5916 -26.5916 -26.5898 -26.5898 -26.5898 -26.5898 -26.5793 -26.5793
   -26.5793 -26.5793 -26.3536 -26.3536 -26.3508 -26.3508 -26.3468 -26.3468
   -16.1041 -16.1041 -16.1032 -16.1032 -16.1028 -16.1028 -16.0975 -16.0975
   -16.0952 -16.0952  -6.3287  -6.2847  -3.2899  -3.2445  -3.1312  -3.0465
    -2.9026  -2.8821  -2.2492  -2.2001  -2.0533  -2.0314  -1.3769  -0.8263
     1.0421   1.1258   1.3176   1.4610   1.6151   2.0656   2.2111

          k = 0.3333 0.3212 0.2315 ( 45915 PWs)   bands (ev):

   -54.6870 -54.6870 -54.6870 -54.6870 -54.4472 -54.4472 -26.5917 -26.5917
   -26.5916 -26.5916 -26.5898 -26.5898 -26.5898 -26.5898 -26.5793 -26.5793
   -26.5793 -26.5793 -26.3536 -26.3536 -26.3508 -26.3508 -26.3468 -26.3468
   -16.1041 -16.1041 -16.1032 -16.1032 -16.1028 -16.1028 -16.0975 -16.0975
   -16.0952 -16.0952  -6.3029  -6.2886  -3.3214  -3.2818  -3.1894  -3.0525
    -2.9161  -2.9089  -2.2752  -2.2281  -2.0416  -2.0159  -1.0875  -0.8842
     1.1025   1.1919   1.3093   1.3967   1.5766   1.7267   2.2695

          k = 0.3333 0.3212 0.4628 ( 45920 PWs)   bands (ev):

   -54.6870 -54.6870 -54.6870 -54.6870 -54.4472 -54.4472 -26.5917 -26.5917
   -26.5916 -26.5916 -26.5898 -26.5898 -26.5898 -26.5898 -26.5793 -26.5793
   -26.5793 -26.5793 -26.3536 -26.3536 -26.3508 -26.3508 -26.3468 -26.3468
   -16.1041 -16.1041 -16.1032 -16.1032 -16.1028 -16.1028 -16.0975 -16.0975
   -16.0952 -16.0952  -6.3015  -6.2900  -3.3288  -3.2696  -3.1917  -3.0498
    -2.9201  -2.9084  -2.2646  -2.2053  -2.0673  -2.0542  -1.0246  -0.8931
     1.0823   1.1642   1.3338   1.3833   1.4643   1.7223   2.3151

          k = 0.3333 0.3212 0.0001 ( 45904 PWs)   bands (ev):

   -54.6870 -54.6870 -54.6870 -54.6870 -54.4472 -54.4472 -26.5917 -26.5917
   -26.5916 -26.5916 -26.5898 -26.5898 -26.5898 -26.5898 -26.5793 -26.5793
   -26.5793 -26.5793 -26.3536 -26.3536 -26.3508 -26.3508 -26.3468 -26.3468
   -16.1041 -16.1041 -16.1032 -16.1032 -16.1028 -16.1028 -16.0975 -16.0975
   -16.0952 -16.0952  -6.3094  -6.2837  -3.2658  -3.2569  -3.1074  -3.0723
    -2.9653  -2.9502  -2.3648  -2.2924  -2.0482  -2.0119  -1.0890  -0.7639
     1.0948   1.1911   1.3290   1.5110   1.6445   1.8490   2.1750

          k = 0.3333-0.4818 0.2315 ( 45946 PWs)   bands (ev):

   -54.6870 -54.6870 -54.6870 -54.6870 -54.4472 -54.4472 -26.5917 -26.5917
   -26.5916 -26.5916 -26.5898 -26.5898 -26.5898 -26.5898 -26.5793 -26.5793
   -26.5793 -26.5793 -26.3536 -26.3536 -26.3508 -26.3508 -26.3468 -26.3468
   -16.1041 -16.1041 -16.1032 -16.1032 -16.1028 -16.1028 -16.0975 -16.0975
   -16.0952 -16.0952  -6.2906  -6.2906  -3.2934  -3.2934  -3.1328  -3.1328
    -2.9519  -2.9519  -2.2738  -2.2738  -2.0324  -2.0324  -0.8974  -0.8974
     1.2178   1.2178   1.2889   1.2889   1.6075   1.6075   2.4704

          k = 0.3333-0.4818 0.4628 ( 45952 PWs)   bands (ev):

   -54.6870 -54.6870 -54.6870 -54.6870 -54.4472 -54.4472 -26.5917 -26.5917
   -26.5916 -26.5916 -26.5898 -26.5898 -26.5898 -26.5898 -26.5793 -26.5793
   -26.5793 -26.5793 -26.3536 -26.3536 -26.3508 -26.3508 -26.3468 -26.3468
   -16.1041 -16.1041 -16.1032 -16.1032 -16.1028 -16.1028 -16.0975 -16.0975
   -16.0952 -16.0952  -6.2906  -6.2906  -3.3018  -3.3018  -3.1224  -3.1224
    -2.9468  -2.9468  -2.2809  -2.2809  -2.0442  -2.0442  -0.8702  -0.8702
     1.1271   1.1271   1.3853   1.3853   1.5414   1.5414   2.4059

          k = 0.3333-0.4818 0.0001 ( 45916 PWs)   bands (ev):

   -54.6870 -54.6870 -54.6870 -54.6870 -54.4472 -54.4472 -26.5917 -26.5917
   -26.5916 -26.5916 -26.5898 -26.5898 -26.5898 -26.5898 -26.5793 -26.5793
   -26.5793 -26.5793 -26.3536 -26.3536 -26.3508 -26.3508 -26.3468 -26.3468
   -16.1041 -16.1041 -16.1032 -16.1032 -16.1028 -16.1028 -16.0975 -16.0975
   -16.0952 -16.0952  -6.2914  -6.2914  -3.2866  -3.2866  -3.0292  -3.0292
    -3.0056  -3.0056  -2.3994  -2.3994  -2.0185  -2.0185  -0.8417  -0.8417
     1.1812   1.1812   1.4827   1.4827   1.6035   1.6035   2.2942

          k =-0.5000 0.0000-0.3472 ( 45920 PWs)   bands (ev):

   -54.6870 -54.6870 -54.6870 -54.6870 -54.4472 -54.4472 -26.5917 -26.5917
   -26.5917 -26.5916 -26.5898 -26.5898 -26.5898 -26.5898 -26.5793 -26.5793
   -26.5793 -26.5793 -26.3536 -26.3536 -26.3508 -26.3508 -26.3468 -26.3468
   -16.1041 -16.1041 -16.1032 -16.1032 -16.1028 -16.1028 -16.0975 -16.0975
   -16.0952 -16.0952  -6.3047  -6.3009  -3.5042  -3.4495  -2.9650  -2.8317
    -2.8256  -2.7762  -2.2375  -2.1659  -2.1542  -2.0191  -1.1730  -1.1631
     0.9221   0.9896   1.4254   1.4288   1.5884   1.6110   2.4891

          k =-0.5000 0.0000-0.1159 ( 45899 PWs)   bands (ev):

   -54.6870 -54.6870 -54.6870 -54.6870 -54.4472 -54.4472 -26.5917 -26.5917
   -26.5916 -26.5916 -26.5898 -26.5898 -26.5898 -26.5898 -26.5793 -26.5793
   -26.5793 -26.5793 -26.3536 -26.3536 -26.3508 -26.3508 -26.3468 -26.3468
   -16.1041 -16.1041 -16.1032 -16.1032 -16.1028 -16.1028 -16.0975 -16.0975
   -16.0952 -16.0952  -6.3048  -6.3029  -3.4156  -3.3738  -3.0345  -2.9684
    -2.8555  -2.8150  -2.1945  -2.1557  -2.1158  -2.0456  -1.1493  -1.1438
     0.9806   1.0084   1.3569   1.4605   1.7011   1.7162   2.2788

          k =-0.5000 0.1606-0.3472 ( 45922 PWs)   bands (ev):

   -54.6870 -54.6870 -54.6870 -54.6870 -54.4472 -54.4472 -26.5917 -26.5917
   -26.5917 -26.5917 -26.5898 -26.5898 -26.5898 -26.5898 -26.5793 -26.5793
   -26.5793 -26.5793 -26.3536 -26.3536 -26.3508 -26.3508 -26.3468 -26.3468
   -16.1041 -16.1041 -16.1032 -16.1032 -16.1028 -16.1028 -16.0975 -16.0975
   -16.0952 -16.0952  -6.2997  -6.2964  -3.4626  -3.4126  -3.0097  -2.9050
    -2.8796  -2.8533  -2.2489  -2.1624  -2.0823  -2.0547  -1.1009  -1.0642
     1.0204   1.0680   1.3286   1.3862   1.5516   1.5856   2.4397

          k =-0.5000 0.1606-0.1159 ( 45918 PWs)   bands (ev):

   -54.6870 -54.6870 -54.6870 -54.6870 -54.4472 -54.4472 -26.5917 -26.5917
   -26.5916 -26.5916 -26.5898 -26.5898 -26.5898 -26.5898 -26.5793 -26.5793
   -26.5793 -26.5793 -26.3536 -26.3536 -26.3508 -26.3508 -26.3468 -26.3468
   -16.1041 -16.1041 -16.1032 -16.1032 -16.1028 -16.1028 -16.0975 -16.0975
   -16.0952 -16.0952  -6.2999  -6.2982  -3.3861  -3.3457  -3.0539  -2.9698
    -2.9213  -2.8830  -2.2514  -2.2043  -2.0841  -2.0439  -1.0570  -1.0415
     1.0522   1.0970   1.3302   1.4188   1.6392   1.6966   2.3024

          k =-0.5000 0.3212-0.3472 ( 45918 PWs)   bands (ev):

   -54.6870 -54.6870 -54.6870 -54.6870 -54.4472 -54.4472 -26.5917 -26.5917
   -26.5917 -26.5917 -26.5898 -26.5898 -26.5898 -26.5898 -26.5793 -26.5793
   -26.5793 -26.5793 -26.3536 -26.3536 -26.3508 -26.3508 -26.3468 -26.3468
   -16.1041 -16.1041 -16.1032 -16.1032 -16.1028 -16.1028 -16.0975 -16.0975
   -16.0952 -16.0952  -6.2893  -6.2874  -3.3474  -3.3096  -3.1141  -3.0652
    -2.9806  -2.9773  -2.2732  -2.1428  -2.1192  -2.0288  -0.9291  -0.8597
     1.1097   1.1182   1.3275   1.3655   1.4872   1.5662   2.4703

          k =-0.5000 0.3212-0.1159 ( 45896 PWs)   bands (ev):

   -54.6870 -54.6870 -54.6870 -54.6870 -54.4472 -54.4472 -26.5917 -26.5917
   -26.5916 -26.5916 -26.5898 -26.5898 -26.5898 -26.5898 -26.5793 -26.5793
   -26.5793 -26.5793 -26.3536 -26.3536 -26.3508 -26.3508 -26.3468 -26.3468
   -16.1041 -16.1041 -16.1032 -16.1032 -16.1028 -16.1028 -16.0975 -16.0975
   -16.0952 -16.0952  -6.2897  -6.2888  -3.3271  -3.2924  -3.0999  -3.0242
    -2.9778  -2.9516  -2.3872  -2.3465  -2.0302  -2.0279  -0.8637  -0.8340
     1.1345   1.1858   1.3222   1.5009   1.5168   1.7134   2.3598

          k =-0.5000-0.4818-0.3472 ( 45888 PWs)   bands (ev):

   -54.6870 -54.6870 -54.6870 -54.6870 -54.4472 -54.4472 -26.5917 -26.5917
   -26.5917 -26.5917 -26.5898 -26.5898 -26.5898 -26.5898 -26.5793 -26.5793
   -26.5793 -26.5793 -26.3536 -26.3536 -26.3508 -26.3508 -26.3468 -26.3468
   -16.1041 -16.1041 -16.1032 -16.1032 -16.1028 -16.1028 -16.0975 -16.0975
   -16.0952 -16.0952  -6.2835  -6.2835  -3.2117  -3.2117  -3.1622  -3.1622
    -3.0835  -3.0835  -2.2337  -2.2337  -2.0592  -2.0592  -0.7923  -0.7923
     1.0840   1.0840   1.3455   1.3455   1.5951   1.5951   2.5433

          k =-0.5000-0.4818-0.1159 ( 45914 PWs)   bands (ev):

   -54.6870 -54.6870 -54.6870 -54.6870 -54.4472 -54.4472 -26.5917 -26.5917
   -26.5916 -26.5916 -26.5898 -26.5898 -26.5898 -26.5898 -26.5793 -26.5793
   -26.5793 -26.5793 -26.3536 -26.3536 -26.3508 -26.3508 -26.3468 -26.3468
   -16.1041 -16.1041 -16.1032 -16.1032 -16.1028 -16.1028 -16.0975 -16.0975
   -16.0952 -16.0952  -6.2843  -6.2843  -3.2962  -3.2962  -3.0426  -3.0426
    -3.0123  -3.0123  -2.4376  -2.4376  -2.0203  -2.0203  -0.7442  -0.7442
     1.1540   1.1540   1.3893   1.3893   1.7229   1.7229   2.3099

     the Fermi energy is    -1.9508 ev

!    total energy              =   -1140.94441653 Ry
     estimated scf accuracy    <          7.6E-09 Ry
     smearing contrib. (-TS)   =       0.00204794 Ry
     internal energy E=F+TS    =   -1140.94646447 Ry

     The total energy is F=E-TS. E is the sum of the following terms:
     one-electron contribution =    -918.30088530 Ry
     hartree contribution      =     475.89247847 Ry
     xc contribution           =    -168.78694735 Ry
     ewald contribution        =    -307.65731501 Ry
     one-center paw contrib.   =    -222.09379527 Ry

     convergence has been achieved in   8 iterations

     Forces acting on atoms (cartesian axes, Ry/au):

     atom    1 type  2   force =     0.00000000    0.00000000    0.00000000
     atom    2 type  2   force =     0.00000000    0.00000000    0.00000000
     atom    3 type  3   force =     0.00000000    0.00000000    0.00000000
     atom    4 type  3   force =     0.00000000    0.00000000    0.00000000
     atom    5 type  3   force =    -0.00082126    0.00064105   -0.00156258
     atom    6 type  3   force =     0.00082126   -0.00064105    0.00156258
     atom    7 type  3   force =     0.00082126    0.00064105    0.00156258
     atom    8 type  3   force =    -0.00082126   -0.00064105   -0.00156258
     atom    9 type  1   force =     0.01168189   -0.01993119   -0.00431084
     atom   10 type  1   force =    -0.01168189    0.01993119    0.00431084
     atom   11 type  1   force =    -0.01168189   -0.01993119    0.00431084
     atom   12 type  1   force =     0.01168189    0.01993119   -0.00431084
     atom   13 type  1   force =    -0.02248849    0.01554954    0.00381080
     atom   14 type  1   force =     0.02248849   -0.01554954   -0.00381080
     atom   15 type  1   force =     0.02248849    0.01554954   -0.00381080
     atom   16 type  1   force =    -0.02248849   -0.01554954    0.00381080
     atom   17 type  1   force =     0.00687857    0.00202507    0.02471549
     atom   18 type  1   force =    -0.00687857   -0.00202507   -0.02471549
     atom   19 type  1   force =    -0.00687857    0.00202507   -0.02471549
     atom   20 type  1   force =     0.00687857   -0.00202507    0.02471549

     Total force =     0.088998     Total SCF correction =     0.000032


     Computing stress (Cartesian axis) and pressure

          total   stress  (Ry/bohr**3)                   (kbar)     P=      -54.75
  -0.00037800   0.00000000   0.00000503          -55.61        0.00        0.74
   0.00000000  -0.00037732   0.00000000            0.00      -55.51        0.00
   0.00000503   0.00000000  -0.00036131            0.74        0.00      -53.15

     Energy error            =      7.8E-03 Ry
     Gradient error          =      2.5E-02 Ry/Bohr

     number of scf cycles    =   2
     number of bfgs steps    =   1

     energy             old  =   -1140.9366253662 Ry
     energy             new  =   -1140.9444165253 Ry

     CASE: energy            _new < energy            _old


     WARNING: bfgs curvature condition failed, Theta= 0.791
     new trust radius        =       0.0299598369 bohr
     new conv_thr            =       0.0000000025 Ry


ATOMIC_POSITIONS (crystal)
Ga            0.5000000000        0.0000000000        0.0000000000
Ga            0.5000000000        0.5000000000        0.5000000000
Na            0.0000000000        0.0000000000        0.5000000000
Na            0.0000000000        0.5000000000        0.0000000000
Na            0.2573542958        0.9528204066        0.2463098265
Na            0.7426457042        0.0471795934        0.7536901735
Na            0.7426457042        0.4528204066        0.2536901735
Na            0.2573542958        0.5471795934        0.7463098265
H             0.4029847153        0.7644027464        0.5625455709
H             0.5970152847        0.2355972536        0.4374544291
H             0.5970152847        0.2644027464        0.9374544291
H             0.4029847153        0.7355972536        0.0625455709
H             0.7255856950        0.8324870900        0.9569299808
H             0.2744143050        0.1675129100        0.0430700192
H             0.2744143050        0.3324870900        0.5430700192
H             0.7255856950        0.6675129100        0.4569299808
H             0.1872978808        0.9525781761        0.7857920302
H             0.8127021192        0.0474218239        0.2142079698
H             0.8127021192        0.4525781761        0.7142079698
H             0.1872978808        0.5474218239        0.2857920302



     Writing config-only to output data dir ./na3gah6.save/
     NEW-OLD atomic charge density approx. for the potential
     Minimization algorithm failed to find Fermi energy: reverting to bisection
     Possible cause: smearing is larger than the electronic band-gap.

     total cpu time spent up to now is       96.9 secs

     Self-consistent Calculation

     iteration #  1     ecut=    75.00 Ry     beta= 0.70
     Davidson diagonalization with overlap
     ethr =  1.00E-06,  avg # of iterations =  4.7
     Minimization algorithm failed to find Fermi energy: reverting to bisection
     Possible cause: smearing is larger than the electronic band-gap.

     total cpu time spent up to now is      101.6 secs

     total energy              =   -1140.95296047 Ry
     estimated scf accuracy    <       0.00038695 Ry

     iteration #  2     ecut=    75.00 Ry     beta= 0.70
     Davidson diagonalization with overlap
     c_bands:  1 eigenvalues not converged
     ethr =  4.21E-07,  avg # of iterations =  5.3
     Minimization algorithm failed to find Fermi energy: reverting to bisection
     Possible cause: smearing is larger than the electronic band-gap.

     total cpu time spent up to now is      105.7 secs

     total energy              =   -1140.95303134 Ry
     estimated scf accuracy    <       0.00019406 Ry

     iteration #  3     ecut=    75.00 Ry     beta= 0.70
     Davidson diagonalization with overlap
     ethr =  2.11E-07,  avg # of iterations =  2.4
     Minimization algorithm failed to find Fermi energy: reverting to bisection
     Possible cause: smearing is larger than the electronic band-gap.

     total cpu time spent up to now is      109.2 secs

     total energy              =   -1140.95306984 Ry
     estimated scf accuracy    <       0.00005488 Ry

     iteration #  4     ecut=    75.00 Ry     beta= 0.70
     Davidson diagonalization with overlap
     ethr =  5.97E-08,  avg # of iterations =  6.5
     Minimization algorithm failed to find Fermi energy: reverting to bisection
     Possible cause: smearing is larger than the electronic band-gap.

     total cpu time spent up to now is      113.4 secs

[...]

   -54.2172 -54.2172 -53.2984 -53.2984 -53.2983 -53.2983 -26.1678 -26.1678
   -26.1567 -26.1567 -26.0531 -26.0531 -25.2561 -25.2561 -25.2556 -25.2556
   -25.2052 -25.2052 -25.2048 -25.2048 -25.1870 -25.1870 -25.1836 -25.1836
   -16.2737 -16.2737 -16.1053 -16.1053 -16.0531 -16.0531 -16.0481 -16.0481
   -15.8662 -15.8662  -8.2587  -8.2587  -5.2703  -5.2703  -3.8062  -3.8062
    -2.8404  -2.8404  -2.4218  -2.4218  -1.7543  -1.7543   0.8109   0.8109
     0.9508   0.9508   1.7028   1.7028   2.1542   2.1542   2.6165

          k = 0.1667-0.4818-0.1156 ( 45948 PWs)   bands (ev):

   -54.2172 -54.2172 -53.2984 -53.2984 -53.2983 -53.2983 -26.1678 -26.1678
   -26.1567 -26.1567 -26.0531 -26.0531 -25.2561 -25.2561 -25.2556 -25.2556
   -25.2052 -25.2052 -25.2048 -25.2048 -25.1870 -25.1870 -25.1836 -25.1836
   -16.2737 -16.2737 -16.1053 -16.1053 -16.0531 -16.0531 -16.0481 -16.0481
   -15.8662 -15.8662  -8.2588  -8.2588  -5.2701  -5.2701  -3.7893  -3.7893
    -2.8898  -2.8898  -2.4234  -2.4234  -1.7056  -1.7056   0.7617   0.7617
     1.0464   1.0464   1.6197   1.6197   1.9532   1.9532   2.6764

          k = 0.3333 0.0000 0.2315 ( 45927 PWs)   bands (ev):

   -54.2172 -54.2172 -53.2984 -53.2984 -53.2983 -53.2983 -26.1678 -26.1678
   -26.1567 -26.1567 -26.0531 -26.0531 -25.2561 -25.2561 -25.2556 -25.2556
   -25.2052 -25.2051 -25.2048 -25.2047 -25.1870 -25.1869 -25.1836 -25.1835
   -16.2737 -16.2737 -16.1053 -16.1053 -16.0531 -16.0531 -16.0481 -16.0481
   -15.8662 -15.8662  -8.2635  -8.2629  -5.2726  -5.2699  -3.7682  -3.6054
    -2.8471  -2.8176  -2.6326  -2.4461  -1.8446  -1.7233   0.3059   0.7370
     0.9540   1.1041   1.5710   1.8759   2.0271   2.3477   2.6769

          k = 0.3333 0.0000 0.4628 ( 45925 PWs)   bands (ev):

   -54.2172 -54.2172 -53.2984 -53.2984 -53.2983 -53.2983 -26.1678 -26.1678
   -26.1567 -26.1567 -26.0531 -26.0531 -25.2561 -25.2560 -25.2557 -25.2556
   -25.2052 -25.2051 -25.2048 -25.2047 -25.1870 -25.1869 -25.1836 -25.1835
   -16.2737 -16.2737 -16.1053 -16.1053 -16.0531 -16.0531 -16.0481 -16.0481
   -15.8662 -15.8662  -8.2689  -8.2575  -5.2748  -5.2681  -3.7923  -3.5613
    -2.9117  -2.7872  -2.6012  -2.4869  -1.8176  -1.7168   0.3184   0.6972
     0.8326   1.4319   1.5794   1.7247   2.0402   2.0519   2.5501

          k = 0.3333 0.0000 0.0001 ( 45961 PWs)   bands (ev):

   -54.2172 -54.2172 -53.2984 -53.2984 -53.2983 -53.2983 -26.1678 -26.1678
   -26.1567 -26.1567 -26.0531 -26.0531 -25.2561 -25.2561 -25.2556 -25.2556
   -25.2051 -25.2051 -25.2048 -25.2048 -25.1870 -25.1869 -25.1836 -25.1835
   -16.2737 -16.2737 -16.1053 -16.1053 -16.0531 -16.0531 -16.0481 -16.0481
   -15.8662 -15.8662  -8.2687  -8.2579  -5.2732  -5.2692  -3.7110  -3.6466
    -2.8877  -2.7930  -2.6044  -2.5284  -1.7728  -1.7524   0.4982   0.5518
     0.9129   1.2755   1.5929   1.8664   1.9814   2.1195   2.5301

          k = 0.3333 0.1606 0.2315 ( 45927 PWs)   bands (ev):

   -54.2172 -54.2172 -53.2984 -53.2984 -53.2983 -53.2983 -26.1678 -26.1678
   -26.1567 -26.1567 -26.0531 -26.0531 -25.2561 -25.2561 -25.2556 -25.2556
   -25.2052 -25.2051 -25.2048 -25.2047 -25.1870 -25.1869 -25.1836 -25.1835
   -16.2737 -16.2737 -16.1053 -16.1053 -16.0531 -16.0531 -16.0481 -16.0481
   -15.8662 -15.8662  -8.2618  -8.2613  -5.2744  -5.2713  -3.7807  -3.6447
    -2.8480  -2.8075  -2.6143  -2.4516  -1.8256  -1.7244   0.3733   0.7664
     1.0111   1.1987   1.5460   1.8126   2.0061   2.3637   2.3900

          k = 0.3333 0.1606 0.4628 ( 45932 PWs)   bands (ev):

   -54.2172 -54.2172 -53.2984 -53.2984 -53.2983 -53.2983 -26.1678 -26.1678
   -26.1567 -26.1567 -26.0531 -26.0531 -25.2561 -25.2560 -25.2557 -25.2556
   -25.2052 -25.2051 -25.2048 -25.2047 -25.1870 -25.1869 -25.1836 -25.1835
   -16.2737 -16.2737 -16.1053 -16.1053 -16.0531 -16.0531 -16.0481 -16.0481
   -15.8662 -15.8662  -8.2665  -8.2565  -5.2758  -5.2700  -3.8013  -3.6097
    -2.9042  -2.7837  -2.5840  -2.4830  -1.8038  -1.7144   0.3616   0.7740
     0.9181   1.3897   1.6303   1.7023   1.8508   2.1287   2.4108

          k = 0.3333 0.1606 0.0001 ( 45930 PWs)   bands (ev):

   -54.2172 -54.2172 -53.2984 -53.2984 -53.2983 -53.2983 -26.1678 -26.1678
   -26.1567 -26.1567 -26.0531 -26.0531 -25.2561 -25.2561 -25.2556 -25.2556
   -25.2052 -25.2051 -25.2048 -25.2047 -25.1870 -25.1869 -25.1836 -25.1835
   -16.2737 -16.2737 -16.1053 -16.1053 -16.0531 -16.0531 -16.0481 -16.0481
   -15.8662 -15.8662  -8.2663  -8.2569  -5.2747  -5.2710  -3.7315  -3.6737
    -2.8849  -2.7925  -2.5927  -2.5295  -1.7620  -1.7354   0.4831   0.6882
     0.9599   1.3485   1.5779   1.8416   1.8786   2.0811   2.4062

          k = 0.3333 0.3212 0.2315 ( 45915 PWs)   bands (ev):

   -54.2172 -54.2172 -53.2984 -53.2984 -53.2983 -53.2983 -26.1678 -26.1678
   -26.1567 -26.1567 -26.0531 -26.0531 -25.2561 -25.2561 -25.2556 -25.2556
   -25.2052 -25.2051 -25.2048 -25.2047 -25.1870 -25.1869 -25.1836 -25.1836
   -16.2737 -16.2737 -16.1053 -16.1053 -16.0531 -16.0531 -16.0481 -16.0481
   -15.8662 -15.8662  -8.2582  -8.2579  -5.2774  -5.2749  -3.7967  -3.7226
    -2.8371  -2.8057  -2.5702  -2.4776  -1.7849  -1.7309   0.5996   0.8551
     1.1296   1.3294   1.4810   1.6017   2.0353   2.1628   2.3430

          k = 0.3333 0.3212 0.4628 ( 45920 PWs)   bands (ev):

   -54.2172 -54.2172 -53.2984 -53.2984 -53.2983 -53.2983 -26.1678 -26.1678
   -26.1567 -26.1567 -26.0531 -26.0531 -25.2561 -25.2560 -25.2557 -25.2556
   -25.2052 -25.2051 -25.2048 -25.2047 -25.1870 -25.1869 -25.1836 -25.1835
   -16.2737 -16.2737 -16.1053 -16.1053 -16.0531 -16.0531 -16.0481 -16.0481
   -15.8662 -15.8662  -8.2609  -8.2552  -5.2777  -5.2743  -3.8082  -3.7050
    -2.8795  -2.8012  -2.5413  -2.4850  -1.7713  -1.7170   0.5590   0.8936
     1.1957   1.2601   1.3709   1.6697   1.8988   2.1827   2.2280

          k = 0.3333 0.3212 0.0001 ( 45904 PWs)   bands (ev):

   -54.2172 -54.2172 -53.2984 -53.2984 -53.2983 -53.2983 -26.1678 -26.1678
   -26.1567 -26.1567 -26.0531 -26.0531 -25.2561 -25.2561 -25.2556 -25.2556
   -25.2052 -25.2051 -25.2048 -25.2047 -25.1870 -25.1869 -25.1836 -25.1836
   -16.2737 -16.2737 -16.1053 -16.1053 -16.0531 -16.0531 -16.0481 -16.0481
   -15.8662 -15.8662  -8.2609  -8.2554  -5.2774  -5.2750  -3.7644  -3.7292
    -2.8657  -2.8026  -2.5735  -2.5405  -1.7325  -1.7114   0.6369   0.8557
     1.1396   1.3901   1.5280   1.5869   1.7971   1.9763   2.4035

          k = 0.3333-0.4818 0.2315 ( 45946 PWs)   bands (ev):

   -54.2172 -54.2172 -53.2984 -53.2984 -53.2983 -53.2983 -26.1678 -26.1678
   -26.1567 -26.1567 -26.0531 -26.0531 -25.2561 -25.2561 -25.2556 -25.2556
   -25.2052 -25.2052 -25.2047 -25.2047 -25.1870 -25.1870 -25.1836 -25.1836
   -16.2737 -16.2737 -16.1053 -16.1053 -16.0531 -16.0531 -16.0481 -16.0481
   -15.8662 -15.8662  -8.2563  -8.2563  -5.2779  -5.2779  -3.7811  -3.7811
    -2.8190  -2.8190  -2.5213  -2.5213  -1.7500  -1.7500   0.9081   0.9081
     1.1181   1.1181   1.5831   1.5831   2.0019   2.0019   2.4732

          k = 0.3333-0.4818 0.4628 ( 45952 PWs)   bands (ev):

   -54.2172 -54.2172 -53.2984 -53.2984 -53.2983 -53.2983 -26.1678 -26.1678
   -26.1567 -26.1567 -26.0531 -26.0531 -25.2561 -25.2561 -25.2556 -25.2556
   -25.2052 -25.2052 -25.2047 -25.2047 -25.1870 -25.1870 -25.1836 -25.1836
   -16.2737 -16.2737 -16.1053 -16.1053 -16.0531 -16.0531 -16.0481 -16.0481
   -15.8662 -15.8662  -8.2563  -8.2563  -5.2777  -5.2777  -3.7797  -3.7797
    -2.8405  -2.8405  -2.5042  -2.5042  -1.7373  -1.7373   0.9005   0.9005
     1.0996   1.0996   1.5320   1.5320   1.9746   1.9746   2.4952

          k = 0.3333-0.4818 0.0001 ( 45916 PWs)   bands (ev):

   -54.2172 -54.2172 -53.2984 -53.2984 -53.2983 -53.2983 -26.1678 -26.1678
   -26.1567 -26.1567 -26.0531 -26.0531 -25.2561 -25.2561 -25.2556 -25.2556
   -25.2052 -25.2052 -25.2047 -25.2047 -25.1869 -25.1869 -25.1836 -25.1836
   -16.2737 -16.2737 -16.1053 -16.1053 -16.0531 -16.0531 -16.0481 -16.0481
   -15.8662 -15.8662  -8.2564  -8.2564  -5.2780  -5.2780  -3.7673  -3.7673
    -2.8316  -2.8316  -2.5573  -2.5573  -1.7096  -1.7096   0.9002   0.9002
     1.1970   1.1970   1.6155   1.6155   1.7216   1.7216   2.6922

          k =-0.5000 0.0000-0.3472 ( 45920 PWs)   bands (ev):

   -54.2172 -54.2172 -53.2984 -53.2984 -53.2983 -53.2983 -26.1678 -26.1678
   -26.1567 -26.1567 -26.0531 -26.0531 -25.2561 -25.2560 -25.2557 -25.2556
   -25.2052 -25.2051 -25.2048 -25.2047 -25.1870 -25.1869 -25.1836 -25.1835
   -16.2737 -16.2737 -16.1053 -16.1053 -16.0531 -16.0531 -16.0481 -16.0481
   -15.8662 -15.8662  -8.2658  -8.2578  -5.2801  -5.2737  -3.8076  -3.5496
    -2.7725  -2.7663  -2.7618  -2.4618  -1.8490  -1.7102   0.2205   0.6916
     0.8620   1.4718   1.4848   1.6853   2.0858   2.3040   2.6597

          k =-0.5000 0.0000-0.1159 ( 45899 PWs)   bands (ev):

   -54.2172 -54.2172 -53.2984 -53.2984 -53.2983 -53.2983 -26.1678 -26.1678
   -26.1567 -26.1567 -26.0531 -26.0531 -25.2561 -25.2560 -25.2556 -25.2556
   -25.2052 -25.2051 -25.2048 -25.2047 -25.1870 -25.1869 -25.1836 -25.1835
   -16.2737 -16.2737 -16.1053 -16.1053 -16.0531 -16.0531 -16.0481 -16.0481
   -15.8662 -15.8662  -8.2639  -8.2599  -5.2782  -5.2750  -3.7463  -3.6165
    -2.7788  -2.7656  -2.6939  -2.5550  -1.8083  -1.7381   0.3564   0.5978
     0.9536   1.1866   1.7437   1.8281   2.0226   2.0710   2.6475

          k =-0.5000 0.1606-0.3472 ( 45922 PWs)   bands (ev):

   -54.2172 -54.2172 -53.2984 -53.2984 -53.2983 -53.2983 -26.1678 -26.1678
   -26.1567 -26.1567 -26.0531 -26.0531 -25.2561 -25.2560 -25.2557 -25.2556
   -25.2052 -25.2051 -25.2048 -25.2047 -25.1870 -25.1869 -25.1836 -25.1835
   -16.2737 -16.2737 -16.1053 -16.1053 -16.0531 -16.0531 -16.0481 -16.0481
   -15.8662 -15.8662  -8.2636  -8.2566  -5.2805  -5.2753  -3.8120  -3.5979
    -2.8065  -2.7844  -2.6864  -2.4674  -1.8332  -1.7132   0.3096   0.7435
     0.9609   1.4211   1.5879   1.6370   1.9188   2.3554   2.4637

          k =-0.5000 0.1606-0.1159 ( 45918 PWs)   bands (ev):

   -54.2172 -54.2172 -53.2984 -53.2984 -53.2983 -53.2983 -26.1678 -26.1678
   -26.1567 -26.1567 -26.0531 -26.0531 -25.2561 -25.2560 -25.2557 -25.2556
   -25.2052 -25.2051 -25.2048 -25.2047 -25.1870 -25.1869 -25.1836 -25.1835
   -16.2737 -16.2737 -16.1053 -16.1053 -16.0531 -16.0531 -16.0481 -16.0481
   -15.8662 -15.8662  -8.2620  -8.2585  -5.2791  -5.2765  -3.7574  -3.6490
    -2.7847  -2.7661  -2.6809  -2.5622  -1.7906  -1.7291   0.4359   0.6622
     1.0361   1.2276   1.7009   1.8331   1.9442   2.0292   2.4105

          k =-0.5000 0.3212-0.3472 ( 45918 PWs)   bands (ev):

   -54.2172 -54.2172 -53.2984 -53.2984 -53.2983 -53.2983 -26.1678 -26.1678
   -26.1567 -26.1567 -26.0531 -26.0531 -25.2561 -25.2560 -25.2557 -25.2556
   -25.2052 -25.2051 -25.2048 -25.2047 -25.1870 -25.1869 -25.1836 -25.1835
   -16.2737 -16.2737 -16.1053 -16.1053 -16.0531 -16.0531 -16.0481 -16.0481
   -15.8662 -15.8662  -8.2588  -8.2547  -5.2816  -5.2789  -3.8094  -3.6942
    -2.8237  -2.8068  -2.6011  -2.4915  -1.7963  -1.7267   0.5830   0.9062
     1.1650   1.3433   1.4461   1.5872   1.9272   2.1757   2.3689

          k =-0.5000 0.3212-0.1159 ( 45896 PWs)   bands (ev):

   -54.2172 -54.2172 -53.2984 -53.2984 -53.2983 -53.2983 -26.1678 -26.1678
   -26.1567 -26.1567 -26.0531 -26.0531 -25.2561 -25.2560 -25.2557 -25.2556
   -25.2052 -25.2052 -25.2047 -25.2047 -25.1870 -25.1869 -25.1836 -25.1836
   -16.2737 -16.2737 -16.1053 -16.1053 -16.0531 -16.0531 -16.0481 -16.0481
   -15.8662 -15.8662  -8.2578  -8.2558  -5.2811  -5.2797  -3.7729  -3.7139
    -2.7884  -2.7733  -2.6537  -2.5872  -1.7538  -1.7176   0.6829   0.8564
     1.2124   1.2883   1.5487   1.6707   1.8452   1.8990   2.2795

          k =-0.5000-0.4818-0.3472 ( 45888 PWs)   bands (ev):

   -54.2172 -54.2172 -53.2984 -53.2984 -53.2983 -53.2983 -26.1678 -26.1678
   -26.1567 -26.1567 -26.0531 -26.0531 -25.2560 -25.2560 -25.2557 -25.2557
   -25.2052 -25.2052 -25.2047 -25.2047 -25.1869 -25.1869 -25.1836 -25.1836
   -16.2737 -16.2737 -16.1053 -16.1053 -16.0531 -16.0531 -16.0481 -16.0481
   -15.8662 -15.8662  -8.2551  -8.2551  -5.2815  -5.2815  -3.7729  -3.7729
    -2.8229  -2.8229  -2.5359  -2.5359  -1.7563  -1.7563   0.9687   0.9687
     1.1678   1.1678   1.4522   1.4522   2.0741   2.0742   2.3169

          k =-0.5000-0.4818-0.1159 ( 45914 PWs)   bands (ev):

   -54.2172 -54.2172 -53.2984 -53.2984 -53.2983 -53.2983 -26.1678 -26.1678
   -26.1567 -26.1567 -26.0531 -26.0531 -25.2560 -25.2560 -25.2557 -25.2557
   -25.2052 -25.2052 -25.2047 -25.2047 -25.1869 -25.1869 -25.1836 -25.1836
   -16.2737 -16.2737 -16.1053 -16.1053 -16.0531 -16.0531 -16.0481 -16.0481
   -15.8662 -15.8662  -8.2551  -8.2551  -5.2818  -5.2818  -3.7619  -3.7619
    -2.7834  -2.7834  -2.6214  -2.6214  -1.7250  -1.7250   0.9906   0.9906
     1.2546   1.2546   1.4832   1.4832   1.7619   1.7619   2.4811

     the Fermi energy is    -0.2010 ev

!    total energy              =   -1141.47358166 Ry
     estimated scf accuracy    <          1.3E-09 Ry
     smearing contrib. (-TS)   =      -0.00000000 Ry
     internal energy E=F+TS    =   -1141.47358166 Ry

     The total energy is F=E-TS. E is the sum of the following terms:
     one-electron contribution =   -1002.83475249 Ry
     hartree contribution      =     520.66368191 Ry
     xc contribution           =    -170.15618299 Ry
     ewald contribution        =    -266.58143833 Ry
     one-center paw contrib.   =    -222.56488977 Ry

     convergence has been achieved in   8 iterations

     Forces acting on atoms (cartesian axes, Ry/au):

     atom    1 type  2   force =     0.00000000    0.00000000    0.00000000
     atom    2 type  2   force =     0.00000000    0.00000000    0.00000000
     atom    3 type  3   force =     0.00000000    0.00000000    0.00000000
     atom    4 type  3   force =     0.00000000    0.00000000    0.00000000
     atom    5 type  3   force =     0.00309986    0.00268346   -0.00093425
     atom    6 type  3   force =    -0.00309986   -0.00268346    0.00093425
     atom    7 type  3   force =    -0.00309986    0.00268346    0.00093425
     atom    8 type  3   force =     0.00309986   -0.00268346   -0.00093425
     atom    9 type  1   force =    -0.00845130    0.00996130   -0.00182289
     atom   10 type  1   force =     0.00845130   -0.00996130    0.00182289
     atom   11 type  1   force =     0.00845130    0.00996130    0.00182289
     atom   12 type  1   force =    -0.00845130   -0.00996130   -0.00182289
     atom   13 type  1   force =     0.01697495   -0.01884979   -0.01053286
     atom   14 type  1   force =    -0.01697495    0.01884979    0.01053286
     atom   15 type  1   force =    -0.01697495   -0.01884979    0.01053286
     atom   16 type  1   force =     0.01697495    0.01884979   -0.01053286
     atom   17 type  1   force =     0.01228647    0.00559321   -0.00036815
     atom   18 type  1   force =    -0.01228647   -0.00559321    0.00036815
     atom   19 type  1   force =    -0.01228647    0.00559321    0.00036815
     atom   20 type  1   force =     0.01228647   -0.00559321   -0.00036815

     Total force =     0.067185     Total SCF correction =     0.000021


     Computing stress (Cartesian axis) and pressure

          total   stress  (Ry/bohr**3)                   (kbar)     P=      -13.94
  -0.00010011   0.00000000  -0.00009340          -14.73        0.00      -13.74
   0.00000000  -0.00009063   0.00000000            0.00      -13.33        0.00
  -0.00009340   0.00000000  -0.00009364          -13.74        0.00      -13.78

     Energy error            =      2.5E-03 Ry
     Gradient error          =      1.9E-02 Ry/Bohr

     number of scf cycles    =  50
     number of bfgs steps    =  49

     energy             old  =   -1141.4710334301 Ry
     energy             new  =   -1141.4735816623 Ry

     CASE: energy            _new < energy            _old

     new trust radius        =       0.0697833551 bohr

     The maximum number of steps has been reached.

     End of BFGS Geometry Optimization

ATOMIC_POSITIONS (crystal)
Ga            0.5000000000        0.0000000000        0.0000000000
Ga            0.5000000000        0.5000000000        0.5000000000
Na           -0.0000000000        0.0000000000        0.5000000000
Na            0.0000000000        0.5000000000        0.0000000000
Na            0.2698437578        0.8589447414        0.3576009595
Na            0.7301562422        0.1410552586        0.6423990405
Na            0.7301562422        0.3589447414        0.1423990405
Na            0.2698437578        0.6410552586        0.8576009595
H             0.3375176526        0.8530816440        0.5396757471
H             0.6624823474        0.1469183560        0.4603242529
H             0.6624823474        0.3530816440        0.9603242529
H             0.3375176526        0.6469183560        0.0396757471
H             0.6666520995        0.8954879063        0.9947078768
H             0.3333479005        0.1045120937        0.0052921232
H             0.3333479005        0.3954879063        0.5052921232
H             0.6666520995        0.6045120937        0.4947078768
H             0.2219905859        0.9145000132        0.8323668933
H             0.7780094141        0.0854999868        0.1676331067
H             0.7780094141        0.4145000132        0.6676331067
H             0.2219905859        0.5854999868        0.3323668933



     Writing config-only to output data dir ./na3gah6.save/
     NEW-OLD atomic charge density approx. for the potential

     Writing all to output data dir ./na3gah6.save/
 
     init_run     :      2.20s CPU      2.38s WALL (       1 calls)
     electrons    :   2312.81s CPU   2351.35s WALL (      50 calls)
     update_pot   :     14.71s CPU     14.89s WALL (      50 calls)
     forces       :     23.57s CPU     24.26s WALL (      50 calls)
     stress       :     59.32s CPU     60.13s WALL (      50 calls)

     Called by init_run:
     wfcinit      :      1.12s CPU      1.17s WALL (       1 calls)
     potinit      :      0.17s CPU      0.19s WALL (       1 calls)
     hinit0       :      0.19s CPU      0.22s WALL (       1 calls)

     Called by electrons:
     c_bands      :   1976.93s CPU   2003.13s WALL (     501 calls)
     sum_band     :    292.26s CPU    298.68s WALL (     501 calls)
     v_of_rho     :     11.32s CPU     11.47s WALL (     551 calls)
     newd         :     10.04s CPU     13.38s WALL (     551 calls)
     PAW_pot      :     21.87s CPU     22.20s WALL (     601 calls)
     mix_rho      :      2.21s CPU      2.27s WALL (     501 calls)

     Called by c_bands:
     init_us_2    :     15.29s CPU     16.19s WALL (   23060 calls)
     init_us_2:cp :     15.16s CPU     16.10s WALL (   23060 calls)
     cegterg      :   1862.78s CPU   1883.49s WALL (   10020 calls)

     Called by *egterg:
     cdiaghg      :    178.51s CPU    179.98s WALL (   61217 calls)
     h_psi        :   1481.35s CPU   1498.59s WALL (   62237 calls)
     s_psi        :     28.17s CPU     28.47s WALL (   62237 calls)
     g_psi        :      2.68s CPU      2.71s WALL (   52197 calls)

     Called by h_psi:
     h_psi:calbec :     54.55s CPU     55.23s WALL (   62237 calls)
     vloc_psi     :   1386.12s CPU   1402.29s WALL (   62237 calls)
     add_vuspsi   :     35.42s CPU     35.80s WALL (   62237 calls)

     General routines
     calbec       :     77.48s CPU     78.40s WALL (   78257 calls)
     fft          :     11.89s CPU     12.11s WALL (    8364 calls)
     ffts         :      1.19s CPU      1.22s WALL (    1052 calls)
     fftw         :   1577.64s CPU   1595.86s WALL ( 3703550 calls)
     interpolate  :      1.49s CPU      1.50s WALL (     551 calls)
     davcio       :      0.00s CPU      0.03s WALL (      20 calls)
 
     Parallel routines
 
     PWSCF        :  40m21.19s CPU  41m 3.25s WALL

 
   This run was terminated on:  10:25:15   1Dec2023            

=------------------------------------------------------------------------------=
   JOB DONE.
=------------------------------------------------------------------------------=
Job execution finished at: Fri Dec  1 10:25:16 IST 2023
