==========================================
SLURM_CLUSTER_NAME = paramganga
SLURM_ARRAY_JOB_ID = 
SLURM_ARRAY_TASK_ID = 
SLURM_ARRAY_TASK_COUNT = 
SLURM_ARRAY_TASK_MAX = 
SLURM_ARRAY_TASK_MIN = 
SLURM_JOB_ACCOUNT = iitr
SLURM_JOB_ID = 174915
SLURM_JOB_NAME = 19280
SLURM_JOB_NODELIST = cn[161-163]
SLURM_JOB_USER = garima.iitr
SLURM_JOB_UID = 38339
SLURM_JOB_PARTITION = small
SLURM_TASK_PID = 47044
SLURM_SUBMIT_DIR = /home/garima.iitr/.cache/.es/compmat/na3gah6
SLURM_CPUS_ON_NODE = 48
SLURM_NTASKS = 144
SLURM_TASK_PID = 47044
==========================================
cn161
 
:: initializing oneAPI environment ...
   slurm_script: BASH_VERSION = 4.2.46(2)-release
   args: Using "$@" for setvars.sh arguments: 
:: advisor -- latest
:: ccl -- latest
:: clck -- latest
:: compiler -- latest
:: dal -- latest
:: debugger -- latest
:: dev-utilities -- latest
:: dnnl -- latest
:: dpcpp-ct -- latest
:: dpl -- latest
:: inspector -- latest
:: intelpython -- latest
:: ipp -- latest
:: ippcp -- latest
:: ipp -- latest
:: itac -- latest
:: mkl -- latest
:: mpi -- latest
:: tbb -- latest
:: vpl -- latest
:: vtune -- latest
:: oneAPI environment initialized ::
 
Job execution start: Fri Dec  1 12:28:46 IST 2023
Job submitted by garima.iitr
The job ID is:174915

     Program PWSCF v.7.1 starts on  1Dec2023 at 12:28:50 

     This program is part of the open-source Quantum ESPRESSO suite
     for quantum simulation of materials; please cite
         "P. Giannozzi et al., J. Phys.:Condens. Matter 21 395502 (2009);
         "P. Giannozzi et al., J. Phys.:Condens. Matter 29 465901 (2017);
         "P. Giannozzi et al., J. Chem. Phys. 152 154105 (2020);
          URL http://www.quantum-espresso.org", 
     in publications or presentations arising from this work. More details at
     http://www.quantum-espresso.org/quote

     Parallel version (MPI & OpenMP), running on     144 processor cores
     Number of MPI processes:               144
     Threads/MPI process:                     1

     MPI processes distributed on     3 nodes
     169969 MiB available memory on the printing compute node when the environment starts
 
     Reading input from na3gah6.in

     Current dimensions of program PWSCF are:
     Max number of different atomic species (ntypx) = 10
     Max number of k-points (npk) =  40000
     Max angular momentum in pseudopotentials (lmaxx) =  4
     file Ga.pbe-dn-kjpaw_psl.1.0.0.UPF: wavefunction(s)  4S renormalized

     IMPORTANT: XC functional enforced from input :
     Exchange-correlation= PBE
                           (   1   4   3   4   0   0   0)
     Any further DFT definition will be discarded
     Please, verify this is what you really want

     Message from routine setup:
     using ibrav=0 with symmetry is DISCOURAGED, use correct ibrav instead
 
     K-points division:     npool     =       2
     R & G space division:  proc/nbgrp/npool/nimage =      72
     Subspace diagonalization in iterative solution of the eigenvalue problem:
     a serial algorithm will be used

 
     Parallelization info
     --------------------
     sticks:   dense  smooth     PW     G-vecs:    dense   smooth      PW
     Min          85      68     18                 7129     5101     714
     Max          86      69     19                 7135     5108     719
     Sum        6157    4913   1333               513491   367409   51587
 
     Using Slab Decomposition
 


     bravais-lattice index     =            0
     lattice parameter (alat)  =      14.0952  a.u.
     unit-cell volume          =    4187.6791 (a.u.)^3
     number of atoms/cell      =           20
     number of atomic types    =            3
     number of electrons       =        92.00
     number of Kohn-Sham states=           55
     kinetic-energy cutoff     =      75.0000  Ry
     charge density cutoff     =     375.0000  Ry
     scf convergence threshold =      1.0E-08
     mixing beta               =       0.7000
     number of iterations used =            8  plain     mixing
     energy convergence thresh.=      1.0E-04
     force convergence thresh. =      1.0E-03
     press convergence thresh. =      5.0E-01
     Exchange-correlation= PBE
                           (   1   4   3   4   0   0   0)
     nstep                     =           50


     celldm(1)=  14.095203  celldm(2)=   0.000000  celldm(3)=   0.000000
     celldm(4)=   0.000000  celldm(5)=   0.000000  celldm(6)=   0.000000

     crystal axes: (cart. coord. in units of alat)
               a(1) = (   1.000000   0.000000   0.000000 )  
               a(2) = (   0.000000   1.037807   0.000000 )  
               a(3) = (  -1.000563   0.000000   1.440930 )  

     reciprocal axes: (cart. coord. in units 2 pi/alat)
               b(1) = (  1.000000  0.000000  0.694387 )  
               b(2) = (  0.000000  0.963570  0.000000 )  
               b(3) = (  0.000000  0.000000  0.693996 )  


     PseudoPot. # 1 for H  read from file:
     /home/garima.iitr/.cache/.es/compmat/nagah4/H.pbe-rrkjus_psl.1.0.0.UPF
     MD5 check sum: 3f4114867bd07edc7f1424d066fc1888
     Pseudo is Ultrasoft, Zval =  1.0
     Generated using &quot;atomic&quot; code by A. Dal Corso  v.6.3MaX
     Using radial grid of  929 points,  2 beta functions with: 
                l(1) =   0
                l(2) =   0
     Q(r) pseudized with 0 coefficients 


     PseudoPot. # 2 for Ga read from file:
     /home/garima.iitr/.cache/.es/compmat/nagah4/Ga.pbe-dn-kjpaw_psl.1.0.0.UPF
     MD5 check sum: 50ce49cbf7e0a40ad8623bf41840a268
     Pseudo is Projector augmented-wave + core cor, Zval = 13.0
     Generated using &quot;atomic&quot; code by A. Dal Corso  v.6.3
     Shape of augmentation charge: PSQ
     Using radial grid of 1205 points,  6 beta functions with: 
                l(1) =   0
                l(2) =   0
                l(3) =   1
                l(4) =   1
                l(5) =   2
                l(6) =   2
     Q(r) pseudized with 0 coefficients 


     PseudoPot. # 3 for Na read from file:
     /home/garima.iitr/.cache/.es/compmat/nagah4/na_pbe_v1.5.uspp.F.UPF
     MD5 check sum: 44600605ef58000f06b90626533354dc
     Pseudo is Ultrasoft, Zval =  9.0
     Generated by new atomic code, or converted to UPF format
     Using radial grid of  819 points,  5 beta functions with: 
                l(1) =   0
                l(2) =   0
                l(3) =   1
                l(4) =   1
                l(5) =   2
     Q(r) pseudized with  8 coefficients,  rinner =    1.250   1.250   1.250
                                                       1.250   1.250

     atomic species   valence    mass     pseudopotential
        H              1.00     1.00750     H ( 1.00)
        Ga            13.00    69.72300     Ga( 1.00)
        Na             9.00    22.98900     Na( 1.00)

      4 Sym. Ops., with inversion, found ( 2 have fractional translation)



   Cartesian axes

     site n.     atom                  positions (alat units)
         1           Ga  tau(   1) = (   0.5000000   0.0000000   0.0000000  )
         2           Ga  tau(   2) = (  -0.0002816   0.5189036   0.7204648  )
         3           Na  tau(   3) = (  -0.5002816   0.0000000   0.7204648  )
         4           Na  tau(   4) = (   0.0000000   0.5189036   0.0000000  )
         5           Na  tau(   5) = (  -0.0879586   0.8914190   0.5152778  )
         6           Na  tau(   6) = (   0.0873954   0.1463882   0.9256518  )
         7           Na  tau(   7) = (   0.5876770   0.3725154   0.2051870  )
         8           Na  tau(   8) = (  -0.5882402   0.6652917   1.2357426  )
         9           H   tau(   9) = (  -0.2024620   0.8853343   0.7776347  )
        10           H   tau(  10) = (   0.2018988   0.1524729   0.6632948  )
        11           H   tau(  11) = (  -0.2983827   0.3664307   1.3837596  )
        12           H   tau(  12) = (   0.2978196   0.6713765   0.0571700  )
        13           H   tau(  13) = (  -0.3286160   0.9293438   1.4333040  )
        14           H   tau(  14) = (   0.3280528   0.1084634   0.0076256  )
        15           H   tau(  15) = (  -0.1722288   0.4104402   0.7280904  )
        16           H   tau(  16) = (   0.1716656   0.6273670   0.7128392  )
        17           H   tau(  17) = (  -0.6108451   0.9490747   1.1993821  )
        18           H   tau(  18) = (   0.6102819   0.0887325   0.2415475  )
        19           H   tau(  19) = (   0.1100003   0.4301711   0.9620123  )
        20           H   tau(  20) = (  -0.1105635   0.6076361   0.4789173  )

     number of k points=    40  Marzari-Vanderbilt smearing, width (Ry)=  0.0050
                       cart. coord. in units 2pi/alat
        k(    1) = (   0.0000000   0.0000000   0.0000000), wk =   0.0185185
        k(    2) = (   0.0000000   0.0000000   0.2313322), wk =   0.0370370
        k(    3) = (   0.0000000   0.1605950   0.0000000), wk =   0.0370370
        k(    4) = (   0.0000000   0.1605950   0.2313322), wk =   0.0740741
        k(    5) = (   0.0000000   0.3211900   0.0000000), wk =   0.0370370
        k(    6) = (   0.0000000   0.3211900   0.2313322), wk =   0.0740741
        k(    7) = (   0.0000000  -0.4817851   0.0000000), wk =   0.0185185
        k(    8) = (   0.0000000  -0.4817851   0.2313322), wk =   0.0370370
        k(    9) = (   0.1666667   0.0000000   0.1157312), wk =   0.0370370
        k(   10) = (   0.1666667   0.0000000   0.3470634), wk =   0.0370370
        k(   11) = (   0.1666667   0.0000000  -0.1156009), wk =   0.0370370
        k(   12) = (   0.1666667   0.1605950   0.1157312), wk =   0.0740741
        k(   13) = (   0.1666667   0.1605950   0.3470634), wk =   0.0740741
        k(   14) = (   0.1666667   0.1605950  -0.1156009), wk =   0.0740741
        k(   15) = (   0.1666667   0.3211900   0.1157312), wk =   0.0740741
        k(   16) = (   0.1666667   0.3211900   0.3470634), wk =   0.0740741
        k(   17) = (   0.1666667   0.3211900  -0.1156009), wk =   0.0740741
        k(   18) = (   0.1666667  -0.4817851   0.1157312), wk =   0.0370370
        k(   19) = (   0.1666667  -0.4817851   0.3470634), wk =   0.0370370
        k(   20) = (   0.1666667  -0.4817851  -0.1156009), wk =   0.0370370
        k(   21) = (   0.3333333   0.0000000   0.2314624), wk =   0.0370370
        k(   22) = (   0.3333333   0.0000000   0.4627946), wk =   0.0370370
        k(   23) = (   0.3333333   0.0000000   0.0001303), wk =   0.0370370
        k(   24) = (   0.3333333   0.1605950   0.2314624), wk =   0.0740741
        k(   25) = (   0.3333333   0.1605950   0.4627946), wk =   0.0740741
        k(   26) = (   0.3333333   0.1605950   0.0001303), wk =   0.0740741
        k(   27) = (   0.3333333   0.3211900   0.2314624), wk =   0.0740741
        k(   28) = (   0.3333333   0.3211900   0.4627946), wk =   0.0740741
        k(   29) = (   0.3333333   0.3211900   0.0001303), wk =   0.0740741
        k(   30) = (   0.3333333  -0.4817851   0.2314624), wk =   0.0370370
        k(   31) = (   0.3333333  -0.4817851   0.4627946), wk =   0.0370370
        k(   32) = (   0.3333333  -0.4817851   0.0001303), wk =   0.0370370
        k(   33) = (  -0.5000000   0.0000000  -0.3471936), wk =   0.0185185
        k(   34) = (  -0.5000000   0.0000000  -0.1158615), wk =   0.0370370
        k(   35) = (  -0.5000000   0.1605950  -0.3471936), wk =   0.0370370
        k(   36) = (  -0.5000000   0.1605950  -0.1158615), wk =   0.0740741
        k(   37) = (  -0.5000000   0.3211900  -0.3471936), wk =   0.0370370
        k(   38) = (  -0.5000000   0.3211900  -0.1158615), wk =   0.0740741
        k(   39) = (  -0.5000000  -0.4817851  -0.3471936), wk =   0.0185185
        k(   40) = (  -0.5000000  -0.4817851  -0.1158615), wk =   0.0370370

     Dense  grid:   513491 G-vectors     FFT dimensions: (  90,  96, 160)

     Smooth grid:   367409 G-vectors     FFT dimensions: (  80,  90, 144)

     Estimated max dynamical RAM per process >      39.13 MB

     Estimated total dynamical RAM >       5.38 GB

     Initial potential from superposition of free atoms

     starting charge      91.9562, renormalised to      92.0000
     Starting wfcs are   60 randomized atomic wfcs
     Checking if some PAW data can be deallocated... 

     total cpu time spent up to now is        2.9 secs

     Self-consistent Calculation

     iteration #  1     ecut=    75.00 Ry     beta= 0.70
     Davidson diagonalization with overlap
     ethr =  1.00E-02,  avg # of iterations =  4.0

     total cpu time spent up to now is        6.9 secs

     total energy              =   -1141.07996841 Ry
     estimated scf accuracy    <       1.50706150 Ry

     iteration #  2     ecut=    75.00 Ry     beta= 0.70
     Davidson diagonalization with overlap
     ethr =  1.64E-03,  avg # of iterations =  6.1

     total cpu time spent up to now is       10.9 secs

     total energy              =   -1141.42886165 Ry
     estimated scf accuracy    <       0.15030753 Ry

     iteration #  3     ecut=    75.00 Ry     beta= 0.70
     Davidson diagonalization with overlap
     ethr =  1.63E-04,  avg # of iterations =  7.0

     total cpu time spent up to now is       15.7 secs

     total energy              =   -1141.47246616 Ry
     estimated scf accuracy    <       0.00880528 Ry

     iteration #  4     ecut=    75.00 Ry     beta= 0.70
     Davidson diagonalization with overlap
     c_bands:  1 eigenvalues not converged
     ethr =  9.57E-06,  avg # of iterations =  8.4

     total cpu time spent up to now is       21.0 secs

     total energy              =   -1141.47605909 Ry
     estimated scf accuracy    <       0.00091118 Ry

     iteration #  5     ecut=    75.00 Ry     beta= 0.70
     Davidson diagonalization with overlap
     ethr =  9.90E-07,  avg # of iterations =  7.7

     total cpu time spent up to now is       26.0 secs

     total energy              =   -1141.47628102 Ry
     estimated scf accuracy    <       0.00006610 Ry

     iteration #  6     ecut=    75.00 Ry     beta= 0.70
     Davidson diagonalization with overlap
     ethr =  7.18E-08,  avg # of iterations =  6.2

     total cpu time spent up to now is       30.9 secs

     total energy              =   -1141.47632366 Ry
     estimated scf accuracy    <       0.00000393 Ry

     iteration #  7     ecut=    75.00 Ry     beta= 0.70
     Davidson diagonalization with overlap
     ethr =  4.28E-09,  avg # of iterations =  5.8

     total cpu time spent up to now is       36.0 secs

     total energy              =   -1141.47632657 Ry
     estimated scf accuracy    <       0.00000036 Ry

     iteration #  8     ecut=    75.00 Ry     beta= 0.70
     Davidson diagonalization with overlap
     ethr =  3.86E-10,  avg # of iterations =  5.9

     total cpu time spent up to now is       40.9 secs

     total energy              =   -1141.47632675 Ry
     estimated scf accuracy    <       0.00000001 Ry

     iteration #  9     ecut=    75.00 Ry     beta= 0.70
     Davidson diagonalization with overlap
     ethr =  1.46E-11,  avg # of iterations =  7.2

     total cpu time spent up to now is       47.3 secs

     End of self-consistent calculation

          k = 0.0000 0.0000 0.0000 ( 45919 PWs)   bands (ev):

   -54.1550 -54.1550 -53.2835 -53.2835 -53.2834 -53.2834 -26.1070 -26.1070
   -26.0956 -26.0956 -25.9898 -25.9898 -25.2414 -25.2413 -25.2408 -25.2408
   -25.1920 -25.1919 -25.1917 -25.1916 -25.1712 -25.1711 -25.1676 -25.1675
   -16.3089 -16.3089 -16.1498 -16.1498 -16.0915 -16.0915 -16.0901 -16.0901
   -15.9061 -15.9061  -8.2897  -8.2681  -5.2746  -5.2656  -3.7320  -3.5881
    -3.0618  -2.9215  -2.5028  -2.4102  -1.7638  -1.7411   0.5988   0.7106
     0.7184   1.1506   1.7181   1.7612   2.2927   2.4623   2.5067

          k = 0.0000 0.0000 0.2313 ( 45918 PWs)   bands (ev):

   -54.1550 -54.1550 -53.2835 -53.2835 -53.2834 -53.2834 -26.1070 -26.1070
   -26.0956 -26.0956 -25.9898 -25.9898 -25.2414 -25.2413 -25.2408 -25.2408
   -25.1920 -25.1920 -25.1916 -25.1916 -25.1712 -25.1711 -25.1676 -25.1676
   -16.3089 -16.3089 -16.1498 -16.1498 -16.0915 -16.0915 -16.0901 -16.0901
   -15.9061 -15.9061  -8.2843  -8.2735  -5.2722  -5.2677  -3.7207  -3.6548
    -2.9809  -2.9155  -2.4669  -2.4180  -1.7889  -1.7793   0.5636   0.6105
     0.8458   1.0787   1.7530   1.9105   2.0822   2.1580   2.7170

          k = 0.0000 0.1606 0.0000 ( 45916 PWs)   bands (ev):

   -54.1550 -54.1550 -53.2835 -53.2835 -53.2834 -53.2834 -26.1070 -26.1070
   -26.0956 -26.0956 -25.9898 -25.9898 -25.2414 -25.2413 -25.2408 -25.2408
   -25.1920 -25.1919 -25.1916 -25.1916 -25.1712 -25.1711 -25.1676 -25.1675
   -16.3089 -16.3089 -16.1498 -16.1498 -16.0915 -16.0915 -16.0901 -16.0901
   -15.9061 -15.9061  -8.2865  -8.2678  -5.2763  -5.2688  -3.7559  -3.6402
    -3.0414  -2.9005  -2.4738  -2.4026  -1.7520  -1.7315   0.5096   0.6632
     0.8860   1.2806   1.6980   1.7835   1.9817   2.2590   2.3131

          k = 0.0000 0.1606 0.2313 ( 45952 PWs)   bands (ev):

   -54.1550 -54.1550 -53.2835 -53.2835 -53.2834 -53.2834 -26.1070 -26.1070
   -26.0956 -26.0956 -25.9898 -25.9898 -25.2414 -25.2413 -25.2408 -25.2408
   -25.1920 -25.1920 -25.1916 -25.1916 -25.1712 -25.1711 -25.1676 -25.1676
   -16.3089 -16.3089 -16.1498 -16.1498 -16.0915 -16.0915 -16.0901 -16.0901
   -15.9061 -15.9061  -8.2818  -8.2724  -5.2744  -5.2706  -3.7493  -3.6958
    -2.9610  -2.8919  -2.4466  -2.4088  -1.7832  -1.7711   0.5208   0.6009
     0.9520   1.1523   1.7702   1.8332   2.0348   2.1309   2.4117

          k = 0.0000 0.3212 0.0000 ( 45932 PWs)   bands (ev):

   -54.1550 -54.1550 -53.2835 -53.2835 -53.2834 -53.2834 -26.1070 -26.1070
   -26.0956 -26.0956 -25.9898 -25.9898 -25.2414 -25.2413 -25.2408 -25.2408
   -25.1920 -25.1920 -25.1916 -25.1916 -25.1712 -25.1711 -25.1676 -25.1676
   -16.3089 -16.3089 -16.1498 -16.1498 -16.0915 -16.0915 -16.0901 -16.0901
   -15.9061 -15.9061  -8.2789  -8.2681  -5.2797  -5.2757  -3.7932  -3.7335
    -2.9898  -2.8917  -2.4209  -2.3881  -1.7248  -1.7127   0.5504   0.6505
     1.0013   1.2852   1.6584   1.6716   1.8243   2.1154   2.3852

          k = 0.0000 0.3212 0.2313 ( 46013 PWs)   bands (ev):

   -54.1550 -54.1550 -53.2835 -53.2835 -53.2834 -53.2834 -26.1070 -26.1070
   -26.0956 -26.0956 -25.9898 -25.9898 -25.2414 -25.2413 -25.2408 -25.2408
   -25.1920 -25.1920 -25.1916 -25.1916 -25.1712 -25.1711 -25.1676 -25.1676
   -16.3089 -16.3089 -16.1498 -16.1498 -16.0915 -16.0915 -16.0901 -16.0901
   -15.9061 -15.9061  -8.2762  -8.2707  -5.2788  -5.2768  -3.7975  -3.7695
    -2.9157  -2.8643  -2.4140  -2.3946  -1.7653  -1.7559   0.5669   0.6506
     0.9895   1.1290   1.7210   1.8105   1.9697   2.1789   2.4153

          k = 0.0000-0.4818 0.0000 ( 45908 PWs)   bands (ev):

   -54.1550 -54.1550 -53.2835 -53.2835 -53.2834 -53.2834 -26.1070 -26.1070
   -26.0956 -26.0956 -25.9898 -25.9898 -25.2413 -25.2413 -25.2408 -25.2408
   -25.1920 -25.1920 -25.1916 -25.1916 -25.1711 -25.1711 -25.1676 -25.1676
   -16.3089 -16.3089 -16.1498 -16.1498 -16.0915 -16.0915 -16.0901 -16.0901
   -15.9061 -15.9061  -8.2717  -8.2717  -5.2804  -5.2804  -3.7921  -3.7921
    -2.9296  -2.9296  -2.3892  -2.3892  -1.7067  -1.7067   0.6858   0.6858
     0.9991   0.9991   1.6706   1.6706   1.9937   1.9937   2.5954

          k = 0.0000-0.4818 0.2313 ( 45976 PWs)   bands (ev):

   -54.1550 -54.1550 -53.2835 -53.2835 -53.2834 -53.2834 -26.1070 -26.1070
   -26.0956 -26.0956 -25.9898 -25.9898 -25.2413 -25.2413 -25.2408 -25.2408
   -25.1920 -25.1920 -25.1916 -25.1916 -25.1711 -25.1711 -25.1676 -25.1676
   -16.3089 -16.3089 -16.1498 -16.1498 -16.0915 -16.0915 -16.0901 -16.0901
   -15.9061 -15.9061  -8.2716  -8.2716  -5.2806  -5.2806  -3.8107  -3.8107
    -2.8743  -2.8743  -2.3954  -2.3954  -1.7512  -1.7512   0.7199   0.7199
     0.9195   0.9195   1.7754   1.7755   2.1282   2.1282   2.5478

          k = 0.1667 0.0000 0.1157 ( 45930 PWs)   bands (ev):

   -54.1550 -54.1550 -53.2835 -53.2835 -53.2834 -53.2834 -26.1070 -26.1070
   -26.0956 -26.0956 -25.9898 -25.9898 -25.2414 -25.2413 -25.2408 -25.2408
   -25.1920 -25.1920 -25.1916 -25.1916 -25.1712 -25.1711 -25.1676 -25.1676
   -16.3089 -16.3089 -16.1498 -16.1498 -16.0915 -16.0915 -16.0901 -16.0901
   -15.9061 -15.9061  -8.2846  -8.2705  -5.2778  -5.2730  -3.6933  -3.6614
    -2.9687  -2.9039  -2.5360  -2.4246  -1.8064  -1.7461   0.4779   0.7178
     0.8304   1.1379   1.5337   1.8700   2.2365   2.4127   2.5150

          k = 0.1667 0.0000 0.3471 ( 45939 PWs)   bands (ev):

   -54.1550 -54.1550 -53.2835 -53.2835 -53.2834 -53.2834 -26.1070 -26.1070
   -26.0956 -26.0956 -25.9898 -25.9898 -25.2414 -25.2413 -25.2408 -25.2408
   -25.1920 -25.1920 -25.1916 -25.1916 -25.1712 -25.1711 -25.1676 -25.1676
   -16.3089 -16.3089 -16.1498 -16.1498 -16.0915 -16.0915 -16.0901 -16.0901
   -15.9061 -15.9061  -8.2795  -8.2755  -5.2775  -5.2734  -3.7548  -3.6250
    -2.9480  -2.8806  -2.5056  -2.4285  -1.8365  -1.7545   0.4086   0.7242
     0.8707   1.0563   1.6980   1.8718   2.0006   2.2295   2.7588

          k = 0.1667 0.0000-0.1156 ( 45922 PWs)   bands (ev):

   -54.1550 -54.1550 -53.2835 -53.2835 -53.2834 -53.2834 -26.1070 -26.1070
   -26.0956 -26.0956 -25.9898 -25.9898 -25.2414 -25.2413 -25.2409 -25.2408
   -25.1920 -25.1919 -25.1917 -25.1916 -25.1712 -25.1711 -25.1676 -25.1675
   -16.3089 -16.3089 -16.1498 -16.1498 -16.0915 -16.0915 -16.0901 -16.0901
   -15.9061 -15.9061  -8.2867  -8.2684  -5.2801  -5.2712  -3.7522  -3.5783
    -3.0267  -2.8759  -2.5088  -2.4678  -1.7712  -1.7501   0.5362   0.6461
     0.7389   1.3214   1.7033   1.7517   2.0024   2.1344   2.4011

          k = 0.1667 0.1606 0.1157 ( 45927 PWs)   bands (ev):

   -54.1550 -54.1550 -53.2835 -53.2835 -53.2834 -53.2834 -26.1070 -26.1070
   -26.0956 -26.0956 -25.9898 -25.9898 -25.2414 -25.2413 -25.2408 -25.2408
   -25.1920 -25.1920 -25.1916 -25.1916 -25.1712 -25.1711 -25.1676 -25.1676
   -16.3089 -16.3089 -16.1498 -16.1498 -16.0915 -16.0915 -16.0901 -16.0901
   -15.9061 -15.9061  -8.2819  -8.2696  -5.2798  -5.2754  -3.7252  -3.6920
    -2.9577  -2.8866  -2.5143  -2.4228  -1.7932  -1.7385   0.4750   0.6912
     0.9204   1.2545   1.5664   1.8157   2.0809   2.2444   2.4780

          k = 0.1667 0.1606 0.3471 ( 45911 PWs)   bands (ev):

   -54.1550 -54.1550 -53.2835 -53.2835 -53.2834 -53.2834 -26.1070 -26.1070
   -26.0956 -26.0956 -25.9898 -25.9898 -25.2414 -25.2413 -25.2408 -25.2408
   -25.1920 -25.1920 -25.1916 -25.1916 -25.1712 -25.1711 -25.1676 -25.1676
   -16.3089 -16.3089 -16.1498 -16.1498 -16.0915 -16.0915 -16.0901 -16.0901
   -15.9061 -15.9061  -8.2775  -8.2740  -5.2797  -5.2756  -3.7763  -3.6687
    -2.9293  -2.8618  -2.4914  -2.4216  -1.8233  -1.7550   0.4216   0.7007
     0.9970   1.0968   1.7027   1.7695   1.9963   2.2150   2.5630

          k = 0.1667 0.1606-0.1156 ( 45923 PWs)   bands (ev):

   -54.1550 -54.1550 -53.2835 -53.2835 -53.2834 -53.2834 -26.1070 -26.1070
   -26.0956 -26.0956 -25.9898 -25.9898 -25.2414 -25.2413 -25.2409 -25.2408
   -25.1920 -25.1920 -25.1916 -25.1915 -25.1712 -25.1711 -25.1676 -25.1675
   -16.3089 -16.3089 -16.1498 -16.1498 -16.0915 -16.0915 -16.0901 -16.0901
   -15.9061 -15.9061  -8.2837  -8.2679  -5.2815  -5.2739  -3.7717  -3.6289
    -3.0081  -2.8603  -2.4895  -2.4588  -1.7621  -1.7385   0.4529   0.7262
     0.8639   1.3407   1.6593   1.8073   1.8296   2.0860   2.4034

          k = 0.1667 0.3212 0.1157 ( 45953 PWs)   bands (ev):

   -54.1550 -54.1550 -53.2835 -53.2835 -53.2834 -53.2834 -26.1070 -26.1070
   -26.0956 -26.0956 -25.9898 -25.9898 -25.2414 -25.2413 -25.2408 -25.2408
   -25.1920 -25.1920 -25.1916 -25.1916 -25.1711 -25.1711 -25.1676 -25.1676
   -16.3089 -16.3089 -16.1498 -16.1498 -16.0915 -16.0915 -16.0901 -16.0901
   -15.9061 -15.9061  -8.2758  -8.2687  -5.2836  -5.2808  -3.7760  -3.7532
    -2.9241  -2.8698  -2.4767  -2.4281  -1.7597  -1.7266   0.5802   0.6981
     1.0203   1.2972   1.6355   1.7116   1.8824   2.1407   2.5017

          k = 0.1667 0.3212 0.3471 ( 46002 PWs)   bands (ev):

   -54.1550 -54.1550 -53.2835 -53.2835 -53.2834 -53.2834 -26.1070 -26.1070
   -26.0956 -26.0956 -25.9898 -25.9898 -25.2413 -25.2413 -25.2408 -25.2408
   -25.1920 -25.1920 -25.1916 -25.1916 -25.1711 -25.1711 -25.1676 -25.1676
   -16.3089 -16.3089 -16.1498 -16.1498 -16.0915 -16.0915 -16.0901 -16.0901
   -15.9061 -15.9061  -8.2732  -8.2711  -5.2836  -5.2807  -3.8092  -3.7511
    -2.8878  -2.8407  -2.4613  -2.4192  -1.7933  -1.7571   0.5489   0.7312
     1.0550   1.1273   1.5567   1.7628   2.1103   2.1773   2.5335

          k = 0.1667 0.3212-0.1156 ( 45951 PWs)   bands (ev):

   -54.1550 -54.1550 -53.2835 -53.2835 -53.2834 -53.2834 -26.1070 -26.1070
   -26.0956 -26.0956 -25.9898 -25.9898 -25.2414 -25.2413 -25.2408 -25.2408
   -25.1920 -25.1920 -25.1916 -25.1915 -25.1712 -25.1711 -25.1676 -25.1676
   -16.3089 -16.3089 -16.1498 -16.1498 -16.0915 -16.0915 -16.0901 -16.0901
   -15.9061 -15.9061  -8.2768  -8.2676  -5.2842  -5.2798  -3.7994  -3.7235
    -2.9598  -2.8600  -2.4552  -2.4404  -1.7388  -1.7199   0.5249   0.7608
     1.0473   1.2704   1.4864   1.7016   1.8168   2.1841   2.3956

          k = 0.1667-0.4818 0.1157 ( 45938 PWs)   bands (ev):

   -54.1550 -54.1550 -53.2835 -53.2835 -53.2834 -53.2834 -26.1070 -26.1070
   -26.0956 -26.0956 -25.9898 -25.9898 -25.2413 -25.2413 -25.2408 -25.2408
   -25.1920 -25.1920 -25.1916 -25.1916 -25.1711 -25.1711 -25.1676 -25.1676
   -16.3089 -16.3089 -16.1498 -16.1498 -16.0915 -16.0915 -16.0901 -16.0901
   -15.9061 -15.9061  -8.2704  -8.2704  -5.2846  -5.2846  -3.7900  -3.7900
    -2.8857  -2.8857  -2.4474  -2.4474  -1.7313  -1.7313   0.7463   0.7463
     1.0310   1.0310   1.7755   1.7755   1.9302   1.9302   2.5875

          k = 0.1667-0.4818 0.3471 ( 45968 PWs)   bands (ev):

   -54.1550 -54.1550 -53.2835 -53.2835 -53.2834 -53.2834 -26.1070 -26.1070
   -26.0956 -26.0956 -25.9898 -25.9898 -25.2413 -25.2413 -25.2408 -25.2408
   -25.1920 -25.1920 -25.1916 -25.1916 -25.1711 -25.1711 -25.1676 -25.1676
   -16.3089 -16.3089 -16.1498 -16.1498 -16.0915 -16.0915 -16.0901 -16.0901
   -15.9061 -15.9061  -8.2704  -8.2704  -5.2845  -5.2845  -3.8060  -3.8060
    -2.8508  -2.8508  -2.4345  -2.4345  -1.7679  -1.7679   0.7873   0.7873
     0.9355   0.9355   1.7129   1.7129   2.1698   2.1698   2.6061

          k = 0.1667-0.4818-0.1156 ( 45948 PWs)   bands (ev):

   -54.1550 -54.1550 -53.2835 -53.2835 -53.2834 -53.2834 -26.1070 -26.1070
   -26.0956 -26.0956 -25.9898 -25.9898 -25.2413 -25.2413 -25.2408 -25.2408
   -25.1920 -25.1920 -25.1916 -25.1916 -25.1711 -25.1711 -25.1676 -25.1676
   -16.3089 -16.3089 -16.1498 -16.1498 -16.0915 -16.0915 -16.0901 -16.0901
   -15.9061 -15.9061  -8.2704  -8.2704  -5.2843  -5.2843  -3.7886  -3.7886
    -2.9012  -2.9012  -2.4358  -2.4358  -1.7189  -1.7189   0.7443   0.7443
     1.0243   1.0243   1.6216   1.6216   1.9677   1.9677   2.6804

          k = 0.3333 0.0000 0.2315 ( 45927 PWs)   bands (ev):

   -54.1550 -54.1550 -53.2835 -53.2835 -53.2834 -53.2834 -26.1070 -26.1070
   -26.0956 -26.0956 -25.9898 -25.9898 -25.2414 -25.2413 -25.2408 -25.2408
   -25.1920 -25.1920 -25.1916 -25.1916 -25.1712 -25.1711 -25.1676 -25.1676
   -16.3089 -16.3089 -16.1498 -16.1498 -16.0915 -16.0915 -16.0901 -16.0901
   -15.9061 -15.9061  -8.2751  -8.2744  -5.2886  -5.2845  -3.7625  -3.6016
    -2.8625  -2.8346  -2.6425  -2.4559  -1.8576  -1.7391   0.3010   0.7002
     0.9519   1.0807   1.5791   1.8822   2.0466   2.3626   2.6895

          k = 0.3333 0.0000 0.4628 ( 45925 PWs)   bands (ev):

   -54.1550 -54.1550 -53.2835 -53.2835 -53.2834 -53.2834 -26.1070 -26.1070
   -26.0956 -26.0956 -25.9898 -25.9898 -25.2414 -25.2413 -25.2409 -25.2408
   -25.1921 -25.1920 -25.1916 -25.1915 -25.1712 -25.1711 -25.1677 -25.1676
   -16.3089 -16.3089 -16.1498 -16.1498 -16.0915 -16.0915 -16.0901 -16.0901
   -15.9061 -15.9061  -8.2805  -8.2690  -5.2911  -5.2824  -3.7864  -3.5569
    -2.9275  -2.8053  -2.6111  -2.4957  -1.8322  -1.7312   0.3110   0.6729
     0.8185   1.4125   1.5843   1.7306   2.0321   2.0645   2.5439

          k = 0.3333 0.0000 0.0001 ( 45961 PWs)   bands (ev):

   -54.1550 -54.1550 -53.2835 -53.2835 -53.2834 -53.2834 -26.1070 -26.1070
   -26.0956 -26.0956 -25.9898 -25.9898 -25.2414 -25.2413 -25.2409 -25.2408
   -25.1920 -25.1920 -25.1916 -25.1916 -25.1712 -25.1711 -25.1676 -25.1676
   -16.3089 -16.3089 -16.1498 -16.1498 -16.0915 -16.0915 -16.0901 -16.0901
   -15.9061 -15.9061  -8.2802  -8.2694  -5.2888  -5.2842  -3.7056  -3.6409
    -2.9052  -2.8124  -2.6127  -2.5387  -1.7841  -1.7668   0.4872   0.5302
     0.8886   1.2704   1.5924   1.8748   1.9910   2.1315   2.5210

          k = 0.3333 0.1606 0.2315 ( 45927 PWs)   bands (ev):

   -54.1550 -54.1550 -53.2835 -53.2835 -53.2834 -53.2834 -26.1070 -26.1070
   -26.0956 -26.0956 -25.9898 -25.9898 -25.2413 -25.2413 -25.2409 -25.2408
   -25.1920 -25.1920 -25.1916 -25.1915 -25.1711 -25.1711 -25.1676 -25.1676
   -16.3089 -16.3089 -16.1498 -16.1498 -16.0915 -16.0915 -16.0901 -16.0901
   -15.9061 -15.9061  -8.2734  -8.2727  -5.2899  -5.2859  -3.7760  -3.6417
    -2.8615  -2.8227  -2.6255  -2.4632  -1.8384  -1.7396   0.3682   0.7288
     1.0067   1.1722   1.5592   1.8226   2.0238   2.3632   2.4141

          k = 0.3333 0.1606 0.4628 ( 45932 PWs)   bands (ev):

   -54.1550 -54.1550 -53.2835 -53.2835 -53.2834 -53.2834 -26.1070 -26.1070
   -26.0956 -26.0956 -25.9898 -25.9898 -25.2414 -25.2413 -25.2409 -25.2408
   -25.1921 -25.1920 -25.1916 -25.1915 -25.1712 -25.1711 -25.1677 -25.1676
   -16.3089 -16.3089 -16.1498 -16.1498 -16.0915 -16.0915 -16.0901 -16.0901
   -15.9061 -15.9061  -8.2781  -8.2680  -5.2918  -5.2842  -3.7964  -3.6065
    -2.9185  -2.7991  -2.5954  -2.4935  -1.8182  -1.7286   0.3562   0.7347
     0.9164   1.3690   1.6290   1.7154   1.8677   2.1047   2.4234

          k = 0.3333 0.1606 0.0001 ( 45930 PWs)   bands (ev):

   -54.1550 -54.1550 -53.2835 -53.2835 -53.2834 -53.2834 -26.1070 -26.1070
   -26.0956 -26.0956 -25.9898 -25.9898 -25.2414 -25.2413 -25.2409 -25.2408
   -25.1920 -25.1920 -25.1916 -25.1916 -25.1711 -25.1711 -25.1676 -25.1676
   -16.3089 -16.3089 -16.1498 -16.1498 -16.0915 -16.0915 -16.0901 -16.0901
   -15.9061 -15.9061  -8.2778  -8.2684  -5.2900  -5.2858  -3.7272  -3.6690
    -2.9006  -2.8091  -2.6024  -2.5419  -1.7737  -1.7491   0.4739   0.6556
     0.9454   1.3408   1.5784   1.8583   1.8823   2.0864   2.4089

          k = 0.3333 0.3212 0.2315 ( 45915 PWs)   bands (ev):

   -54.1550 -54.1550 -53.2835 -53.2835 -53.2834 -53.2834 -26.1070 -26.1070
   -26.0956 -26.0956 -25.9898 -25.9898 -25.2413 -25.2413 -25.2409 -25.2408
   -25.1921 -25.1920 -25.1916 -25.1915 -25.1711 -25.1711 -25.1676 -25.1676
   -16.3089 -16.3089 -16.1498 -16.1498 -16.0915 -16.0915 -16.0901 -16.0901
   -15.9061 -15.9061  -8.2698  -8.2694  -5.2923  -5.2894  -3.7938  -3.7208
    -2.8484  -2.8175  -2.5839  -2.4917  -1.7977  -1.7449   0.5900   0.8177
     1.1098   1.2971   1.5220   1.6122   2.0544   2.1681   2.3556

          k = 0.3333 0.3212 0.4628 ( 45920 PWs)   bands (ev):

   -54.1550 -54.1550 -53.2835 -53.2835 -53.2834 -53.2834 -26.1070 -26.1070
   -26.0956 -26.0956 -25.9898 -25.9898 -25.2413 -25.2413 -25.2409 -25.2408
   -25.1921 -25.1920 -25.1916 -25.1915 -25.1711 -25.1711 -25.1676 -25.1676
   -16.3089 -16.3089 -16.1498 -16.1498 -16.0915 -16.0915 -16.0901 -16.0901
   -15.9061 -15.9061  -8.2725  -8.2667  -5.2929  -5.2886  -3.8052  -3.7031
    -2.8915  -2.8130  -2.5548  -2.4979  -1.7851  -1.7308   0.5533   0.8498
     1.1711   1.2473   1.4002   1.6678   1.9145   2.1830   2.2251

          k = 0.3333 0.3212 0.0001 ( 45904 PWs)   bands (ev):

   -54.1550 -54.1550 -53.2835 -53.2835 -53.2834 -53.2834 -26.1070 -26.1070
   -26.0956 -26.0956 -25.9898 -25.9898 -25.2413 -25.2413 -25.2409 -25.2408
   -25.1920 -25.1920 -25.1916 -25.1915 -25.1711 -25.1711 -25.1676 -25.1676
   -16.3089 -16.3089 -16.1498 -16.1498 -16.0915 -16.0915 -16.0901 -16.0901
   -15.9061 -15.9061  -8.2724  -8.2670  -5.2923  -5.2896  -3.7616  -3.7263
    -2.8784  -2.8155  -2.5858  -2.5552  -1.7447  -1.7244   0.6258   0.8106
     1.1193   1.4025   1.5298   1.5989   1.7954   2.0033   2.3919

          k = 0.3333-0.4818 0.2315 ( 45946 PWs)   bands (ev):

   -54.1550 -54.1550 -53.2835 -53.2835 -53.2834 -53.2834 -26.1070 -26.1070
   -26.0956 -26.0956 -25.9898 -25.9898 -25.2413 -25.2413 -25.2409 -25.2409
   -25.1920 -25.1920 -25.1915 -25.1915 -25.1711 -25.1711 -25.1676 -25.1676
   -16.3089 -16.3089 -16.1498 -16.1498 -16.0915 -16.0915 -16.0901 -16.0901
   -15.9061 -15.9061  -8.2679  -8.2679  -5.2925  -5.2925  -3.7794  -3.7794
    -2.8294  -2.8294  -2.5360  -2.5360  -1.7631  -1.7631   0.8697   0.8697
     1.1198   1.1198   1.5922   1.5922   2.0231   2.0231   2.4704

          k = 0.3333-0.4818 0.4628 ( 45952 PWs)   bands (ev):

   -54.1550 -54.1550 -53.2835 -53.2835 -53.2834 -53.2834 -26.1070 -26.1070
   -26.0956 -26.0956 -25.9898 -25.9898 -25.2413 -25.2413 -25.2409 -25.2409
   -25.1920 -25.1920 -25.1915 -25.1915 -25.1711 -25.1711 -25.1676 -25.1676
   -16.3089 -16.3089 -16.1498 -16.1498 -16.0915 -16.0915 -16.0901 -16.0901
   -15.9061 -15.9061  -8.2679  -8.2679  -5.2922  -5.2922  -3.7779  -3.7779
    -2.8514  -2.8514  -2.5181  -2.5181  -1.7509  -1.7509   0.8734   0.8734
     1.0913   1.0913   1.5328   1.5328   1.9965   1.9965   2.4815

          k = 0.3333-0.4818 0.0001 ( 45916 PWs)   bands (ev):

   -54.1550 -54.1550 -53.2835 -53.2835 -53.2834 -53.2834 -26.1070 -26.1070
   -26.0956 -26.0956 -25.9898 -25.9898 -25.2413 -25.2413 -25.2409 -25.2409
   -25.1920 -25.1920 -25.1915 -25.1915 -25.1711 -25.1711 -25.1676 -25.1676
   -16.3089 -16.3089 -16.1498 -16.1498 -16.0915 -16.0915 -16.0901 -16.0901
   -15.9061 -15.9061  -8.2680  -8.2680  -5.2926  -5.2926  -3.7651  -3.7651
    -2.8432  -2.8432  -2.5715  -2.5715  -1.7221  -1.7221   0.8635   0.8635
     1.1943   1.1943   1.6228   1.6228   1.7420   1.7420   2.6773

          k =-0.5000 0.0000-0.3472 ( 45920 PWs)   bands (ev):

   -54.1550 -54.1550 -53.2835 -53.2835 -53.2834 -53.2834 -26.1070 -26.1070
   -26.0956 -26.0956 -25.9898 -25.9898 -25.2414 -25.2413 -25.2409 -25.2408
   -25.1921 -25.1920 -25.1916 -25.1915 -25.1712 -25.1711 -25.1677 -25.1676
   -16.3089 -16.3089 -16.1498 -16.1498 -16.0915 -16.0915 -16.0901 -16.0901
   -15.9061 -15.9061  -8.2774  -8.2692  -5.2966  -5.2880  -3.8011  -3.5453
    -2.7887  -2.7829  -2.7715  -2.4733  -1.8632  -1.7260   0.2177   0.6642
     0.8549   1.4569   1.4868   1.6953   2.0951   2.2858   2.6498

          k =-0.5000 0.0000-0.1159 ( 45899 PWs)   bands (ev):

   -54.1550 -54.1550 -53.2835 -53.2835 -53.2834 -53.2834 -26.1070 -26.1070
   -26.0956 -26.0956 -25.9898 -25.9898 -25.2413 -25.2413 -25.2409 -25.2408
   -25.1920 -25.1920 -25.1916 -25.1915 -25.1711 -25.1711 -25.1676 -25.1676
   -16.3089 -16.3089 -16.1498 -16.1498 -16.0915 -16.0915 -16.0901 -16.0901
   -15.9061 -15.9061  -8.2755  -8.2714  -5.2942  -5.2899  -3.7400  -3.6112
    -2.7944  -2.7819  -2.7063  -2.5678  -1.8211  -1.7513   0.3478   0.5773
     0.9422   1.1722   1.7518   1.8359   2.0258   2.0862   2.6249

          k =-0.5000 0.1606-0.3472 ( 45922 PWs)   bands (ev):

   -54.1550 -54.1550 -53.2835 -53.2835 -53.2834 -53.2834 -26.1070 -26.1070
   -26.0956 -26.0956 -25.9898 -25.9898 -25.2414 -25.2413 -25.2409 -25.2408
   -25.1921 -25.1920 -25.1916 -25.1915 -25.1712 -25.1711 -25.1677 -25.1676
   -16.3089 -16.3089 -16.1498 -16.1498 -16.0915 -16.0915 -16.0901 -16.0901
   -15.9061 -15.9061  -8.2752  -8.2681  -5.2968  -5.2896  -3.8064  -3.5946
    -2.8182  -2.7988  -2.7005  -2.4803  -1.8472  -1.7285   0.3059   0.7144
     0.9551   1.4044   1.5868   1.6469   1.9326   2.3115   2.4928

          k =-0.5000 0.1606-0.1159 ( 45918 PWs)   bands (ev):

   -54.1550 -54.1550 -53.2835 -53.2835 -53.2834 -53.2834 -26.1070 -26.1070
   -26.0956 -26.0956 -25.9898 -25.9898 -25.2413 -25.2413 -25.2409 -25.2408
   -25.1920 -25.1920 -25.1916 -25.1915 -25.1711 -25.1711 -25.1676 -25.1676
   -16.3089 -16.3089 -16.1498 -16.1498 -16.0915 -16.0915 -16.0901 -16.0901
   -15.9061 -15.9061  -8.2735  -8.2700  -5.2949  -5.2913  -3.7521  -3.6446
    -2.7984  -2.7796  -2.6956  -2.5763  -1.8033  -1.7423   0.4261   0.6393
     1.0265   1.2127   1.7069   1.8388   1.9642   2.0337   2.3994

          k =-0.5000 0.3212-0.3472 ( 45918 PWs)   bands (ev):

   -54.1550 -54.1550 -53.2835 -53.2835 -53.2834 -53.2834 -26.1070 -26.1070
   -26.0956 -26.0956 -25.9898 -25.9898 -25.2413 -25.2413 -25.2409 -25.2408
   -25.1921 -25.1920 -25.1916 -25.1915 -25.1711 -25.1711 -25.1677 -25.1676
   -16.3089 -16.3089 -16.1498 -16.1498 -16.0915 -16.0915 -16.0901 -16.0901
   -15.9061 -15.9061  -8.2704  -8.2663  -5.2970  -5.2932  -3.8056  -3.6919
    -2.8344  -2.8185  -2.6157  -2.5063  -1.8099  -1.7410   0.5744   0.8679
     1.1707   1.3146   1.4596   1.5878   1.9411   2.1637   2.3902

          k =-0.5000 0.3212-0.1159 ( 45896 PWs)   bands (ev):

   -54.1550 -54.1550 -53.2835 -53.2835 -53.2834 -53.2834 -26.1070 -26.1070
   -26.0956 -26.0956 -25.9898 -25.9898 -25.2413 -25.2413 -25.2409 -25.2409
   -25.1921 -25.1920 -25.1916 -25.1915 -25.1711 -25.1711 -25.1676 -25.1676
   -16.3089 -16.3089 -16.1498 -16.1498 -16.0915 -16.0915 -16.0901 -16.0901
   -15.9061 -15.9061  -8.2694  -8.2674  -5.2963  -5.2944  -3.7691  -3.7108
    -2.7997  -2.7838  -2.6700  -2.6029  -1.7664  -1.7304   0.6657   0.8216
     1.2130   1.2723   1.5652   1.6721   1.8492   1.9249   2.2672

          k =-0.5000-0.4818-0.3472 ( 45888 PWs)   bands (ev):

   -54.1550 -54.1550 -53.2835 -53.2835 -53.2834 -53.2834 -26.1070 -26.1070
   -26.0956 -26.0956 -25.9898 -25.9898 -25.2413 -25.2413 -25.2409 -25.2409
   -25.1921 -25.1921 -25.1915 -25.1915 -25.1711 -25.1711 -25.1676 -25.1676
   -16.3089 -16.3089 -16.1498 -16.1498 -16.0915 -16.0915 -16.0901 -16.0901
   -15.9061 -15.9061  -8.2666  -8.2666  -5.2962  -5.2962  -3.7705  -3.7705
    -2.8334  -2.8334  -2.5510  -2.5510  -1.7699  -1.7699   0.9266   0.9266
     1.1895   1.1895   1.4383   1.4383   2.0974   2.0980   2.3164

          k =-0.5000-0.4818-0.1159 ( 45914 PWs)   bands (ev):

   -54.1550 -54.1550 -53.2835 -53.2835 -53.2834 -53.2834 -26.1070 -26.1070
   -26.0956 -26.0956 -25.9898 -25.9898 -25.2413 -25.2413 -25.2409 -25.2409
   -25.1921 -25.1921 -25.1915 -25.1915 -25.1711 -25.1711 -25.1676 -25.1676
   -16.3089 -16.3089 -16.1498 -16.1498 -16.0915 -16.0915 -16.0901 -16.0901
   -15.9061 -15.9061  -8.2667  -8.2667  -5.2966  -5.2966  -3.7592  -3.7592
    -2.7936  -2.7936  -2.6376  -2.6376  -1.7376  -1.7376   0.9380   0.9380
     1.2827   1.2827   1.4805   1.4805   1.7770   1.7770   2.4777

     the Fermi energy is    -0.2031 ev

!    total energy              =   -1141.47632677 Ry
     estimated scf accuracy    <          9.1E-09 Ry
     smearing contrib. (-TS)   =      -0.00000000 Ry
     internal energy E=F+TS    =   -1141.47632677 Ry

     The total energy is F=E-TS. E is the sum of the following terms:
     one-electron contribution =   -1003.22059191 Ry
     hartree contribution      =     520.85363019 Ry
     xc contribution           =    -170.15150595 Ry
     ewald contribution        =    -266.40605150 Ry
     one-center paw contrib.   =    -222.55180760 Ry

     convergence has been achieved in   9 iterations

     Forces acting on atoms (cartesian axes, Ry/au):

     atom    1 type  2   force =     0.00000000    0.00000000    0.00000000
     atom    2 type  2   force =     0.00000000    0.00000000    0.00000000
     atom    3 type  3   force =     0.00000000    0.00000000    0.00000000
     atom    4 type  3   force =     0.00000000    0.00000000    0.00000000
     atom    5 type  3   force =     0.00324963    0.00299748   -0.00177298
     atom    6 type  3   force =    -0.00324963   -0.00299748    0.00177298
     atom    7 type  3   force =    -0.00324963    0.00299748    0.00177298
     atom    8 type  3   force =     0.00324963   -0.00299748   -0.00177298
     atom    9 type  1   force =    -0.00871144    0.00954728   -0.00121676
     atom   10 type  1   force =     0.00871144   -0.00954728    0.00121676
     atom   11 type  1   force =     0.00871144    0.00954728    0.00121676
     atom   12 type  1   force =    -0.00871144   -0.00954728   -0.00121676
     atom   13 type  1   force =     0.01277304   -0.01707980   -0.01147179
     atom   14 type  1   force =    -0.01277304    0.01707980    0.01147179
     atom   15 type  1   force =    -0.01277304   -0.01707980    0.01147179
     atom   16 type  1   force =     0.01277304    0.01707980   -0.01147179
     atom   17 type  1   force =     0.01340902    0.00448148    0.00064318
     atom   18 type  1   force =    -0.01340902   -0.00448148   -0.00064318
     atom   19 type  1   force =    -0.01340902    0.00448148   -0.00064318
     atom   20 type  1   force =     0.01340902   -0.00448148    0.00064318

     Total force =     0.062545     Total SCF correction =     0.000023


     Computing stress (Cartesian axis) and pressure

          total   stress  (Ry/bohr**3)                   (kbar)     P=      -14.18
  -0.00010959   0.00000000  -0.00009621          -16.12        0.00      -14.15
   0.00000000  -0.00008767   0.00000000            0.00      -12.90        0.00
  -0.00009621   0.00000000  -0.00009190          -14.15        0.00      -13.52


     BFGS Geometry Optimization
     Energy error            =      0.0E+00 Ry
     Gradient error          =      1.7E-02 Ry/Bohr
     Cell gradient error     =      1.6E+01 kbar

     number of scf cycles    =   1
     number of bfgs steps    =   0

     enthalpy           new  =   -1141.4763267728 Ry

     new trust radius        =       0.0471845665 bohr
     new conv_thr            =       0.0000000100 Ry

     new unit-cell volume =   4157.45420 a.u.^3 (   616.07115 Ang^3 )
     density =      0.78023 g/cm^3

CELL_PARAMETERS (alat= 14.09520260)
   0.997260338   0.000000000  -0.002405311
   0.000000000   1.035532471   0.000000000
  -1.001287858   0.000000000   1.440025528

ATOMIC_POSITIONS (crystal)
Ga            0.5000000000        0.0000000000        0.0000000000
Ga            0.5000000000        0.5000000000        0.5000000000
Na            0.0000000000        0.0000000000        0.5000000000
Na            0.0000000000        0.5000000000        0.0000000000
Na            0.2699869620        0.8591496539        0.3575136646
Na            0.7300130380        0.1408503461        0.6424863354
Na            0.7300130380        0.3591496539        0.1424863354
Na            0.2699869620        0.6408503461        0.8575136646
H             0.3368396670        0.8537343111        0.5396158382
H             0.6631603330        0.1462656889        0.4603841618
H             0.6631603330        0.3537343111        0.9603841618
H             0.3368396670        0.6462656889        0.0396158382
H             0.6669931501        0.8943203044        0.9941430478
H             0.3330068499        0.1056796956        0.0058569522
H             0.3330068499        0.3943203044        0.5058569522
H             0.6669931501        0.6056796956        0.4941430478
H             0.2229735899        0.9148063745        0.8323985613
H             0.7770264101        0.0851936255        0.1676014387
H             0.7770264101        0.4148063745        0.6676014387
H             0.2229735899        0.5851936255        0.3323985613



     Writing config-only to output data dir ./na3gah6.save/
     NEW-OLD atomic charge density approx. for the potential
     extrapolated charge   91.33147, renormalised to   92.00000

     total cpu time spent up to now is       49.5 secs

     Self-consistent Calculation

     iteration #  1     ecut=    75.00 Ry     beta= 0.70
     Davidson diagonalization with overlap
     c_bands:  1 eigenvalues not converged
     ethr =  1.00E-06,  avg # of iterations = 14.0

     total cpu time spent up to now is       60.6 secs

     total energy              =   -1141.41895064 Ry
     estimated scf accuracy    <       0.06318346 Ry

     iteration #  2     ecut=    75.00 Ry     beta= 0.70
     Davidson diagonalization with overlap
     ethr =  6.87E-05,  avg # of iterations =  6.0

     total cpu time spent up to now is       66.8 secs

     total energy              =   -1141.47943404 Ry
     estimated scf accuracy    <       0.16704592 Ry

     iteration #  3     ecut=    75.00 Ry     beta= 0.70
     Davidson diagonalization with overlap
     ethr =  6.87E-05,  avg # of iterations =  2.0

     total cpu time spent up to now is       70.5 secs

     total energy              =   -1141.48281670 Ry
     estimated scf accuracy    <       0.05004086 Ry

     iteration #  4     ecut=    75.00 Ry     beta= 0.70
     Davidson diagonalization with overlap
     ethr =  5.44E-05,  avg # of iterations =  1.0

     total cpu time spent up to now is       73.6 secs

     total energy              =   -1141.48005409 Ry
     estimated scf accuracy    <       0.03426663 Ry

     iteration #  5     ecut=    75.00 Ry     beta= 0.70
     Davidson diagonalization with overlap
     ethr =  3.72E-05,  avg # of iterations =  2.0

     total cpu time spent up to now is       77.2 secs

     total energy              =   -1141.47708815 Ry
     estimated scf accuracy    <       0.01917719 Ry

     iteration #  6     ecut=    75.00 Ry     beta= 0.70
     Davidson diagonalization with overlap
     ethr =  2.08E-05,  avg # of iterations =  6.0

     total cpu time spent up to now is       81.8 secs

     total energy              =   -1141.48546453 Ry
     estimated scf accuracy    <       0.00387769 Ry

     iteration #  7     ecut=    75.00 Ry     beta= 0.70
     Davidson diagonalization with overlap
     ethr =  4.21E-06,  avg # of iterations =  3.3

     total cpu time spent up to now is       85.5 secs

     total energy              =   -1141.48619666 Ry
     estimated scf accuracy    <       0.00287237 Ry

     iteration #  8     ecut=    75.00 Ry     beta= 0.70
     Davidson diagonalization with overlap
     ethr =  3.12E-06,  avg # of iterations =  1.9

     total cpu time spent up to now is       89.1 secs

     total energy              =   -1141.48941242 Ry
     estimated scf accuracy    <       0.00546821 Ry

     iteration #  9     ecut=    75.00 Ry     beta= 0.70
     Davidson diagonalization with overlap
     ethr =  3.12E-06,  avg # of iterations =  5.0

     total cpu time spent up to now is       93.7 secs

     total energy              =   -1141.48673138 Ry
     estimated scf accuracy    <       0.03220386 Ry

     iteration # 10     ecut=    75.00 Ry     beta= 0.70
     Davidson diagonalization with overlap
     ethr =  3.12E-06,  avg # of iterations =  5.0

     total cpu time spent up to now is       98.1 secs

     total energy              =   -1141.48388606 Ry
     estimated scf accuracy    <       0.01263262 Ry

     iteration # 11     ecut=    75.00 Ry     beta= 0.70
     Davidson diagonalization with overlap
     ethr =  3.12E-06,  avg # of iterations =  5.0

     total cpu time spent up to now is      102.6 secs

     total energy              =   -1141.48499445 Ry
     estimated scf accuracy    <       0.00015479 Ry

     iteration # 12     ecut=    75.00 Ry     beta= 0.70
     Davidson diagonalization with overlap
     ethr =  1.68E-07,  avg # of iterations =  5.0

     total cpu time spent up to now is      107.3 secs

     total energy              =   -1141.48491387 Ry
     estimated scf accuracy    <       0.00105926 Ry

     iteration # 13     ecut=    75.00 Ry     beta= 0.70
     Davidson diagonalization with overlap
     ethr =  1.68E-07,  avg # of iterations =  5.0

     total cpu time spent up to now is      111.9 secs

     total energy              =   -1141.48494306 Ry
     estimated scf accuracy    <       0.00009975 Ry

     iteration # 14     ecut=    75.00 Ry     beta= 0.70
     Davidson diagonalization with overlap
     ethr =  1.08E-07,  avg # of iterations =  5.0

     total cpu time spent up to now is      116.2 secs

     total energy              =   -1141.48495434 Ry
     estimated scf accuracy    <       0.00004609 Ry

     iteration # 15     ecut=    75.00 Ry     beta= 0.70
     Davidson diagonalization with overlap
     ethr =  5.01E-08,  avg # of iterations =  5.1

     total cpu time spent up to now is      120.7 secs

     total energy              =   -1141.48496351 Ry
     estimated scf accuracy    <       0.00001115 Ry

     iteration # 16     ecut=    75.00 Ry     beta= 0.70
     Davidson diagonalization with overlap
     ethr =  1.21E-08,  avg # of iterations =  2.0

     total cpu time spent up to now is      124.2 secs

     total energy              =   -1141.48496421 Ry
     estimated scf accuracy    <       0.00000120 Ry

     iteration # 17     ecut=    75.00 Ry     beta= 0.70
     Davidson diagonalization with overlap
     ethr =  1.31E-09,  avg # of iterations =  5.9

     total cpu time spent up to now is      128.8 secs

     total energy              =   -1141.48496478 Ry
     estimated scf accuracy    <       0.00000066 Ry

     iteration # 18     ecut=    75.00 Ry     beta= 0.70
     Davidson diagonalization with overlap
     ethr =  7.14E-10,  avg # of iterations =  1.8

     total cpu time spent up to now is      132.1 secs

     total energy              =   -1141.48496474 Ry
     estimated scf accuracy    <       0.00000032 Ry

     iteration # 19     ecut=    75.00 Ry     beta= 0.70
     Davidson diagonalization with overlap
     ethr =  3.49E-10,  avg # of iterations =  6.0

     total cpu time spent up to now is      137.1 secs

     total energy              =   -1141.48496461 Ry
     estimated scf accuracy    <       0.00000110 Ry

     iteration # 20     ecut=    75.00 Ry     beta= 0.70
     Davidson diagonalization with overlap
     ethr =  3.49E-10,  avg # of iterations =  5.0

     total cpu time spent up to now is      141.6 secs

     End of self-consistent calculation

          k = 0.0000 0.0000 0.0000 ( 45919 PWs)   bands (ev):

   -54.1066 -54.1066 -53.2698 -53.2698 -53.2696 -53.2696 -26.0590 -26.0590
   -26.0479 -26.0479 -25.9410 -25.9410 -25.2273 -25.2272 -25.2267 -25.2266
   -25.1785 -25.1784 -25.1781 -25.1780 -25.1579 -25.1578 -25.1542 -25.1541
   -16.2706 -16.2706 -16.1175 -16.1175 -16.0583 -16.0583 -16.0551 -16.0551
   -15.8712 -15.8712  -8.2595  -8.2369  -5.2259  -5.2171  -3.7455  -3.5978
    -3.0508  -2.9155  -2.4945  -2.4052  -1.7485  -1.7259   0.6066   0.7296
     0.7345   1.1810   1.7376   1.7746   2.3253   2.4859   2.5371

          k = 0.0006 0.0000 0.2319 ( 45918 PWs)   bands (ev):

   -54.1066 -54.1066 -53.2698 -53.2698 -53.2696 -53.2696 -26.0590 -26.0590
   -26.0479 -26.0479 -25.9410 -25.9410 -25.2272 -25.2272 -25.2266 -25.2266
   -25.1785 -25.1784 -25.1781 -25.1780 -25.1579 -25.1578 -25.1542 -25.1541
   -16.2706 -16.2706 -16.1175 -16.1175 -16.0583 -16.0583 -16.0551 -16.0551
   -15.8712 -15.8712  -8.2538  -8.2425  -5.2235  -5.2191  -3.7330  -3.6651
    -2.9711  -2.9081  -2.4597  -2.4124  -1.7739  -1.7644   0.5764   0.6283
     0.8601   1.0981   1.7723   1.9355   2.1016   2.1946   2.7505

          k = 0.0000 0.1609 0.0000 ( 45916 PWs)   bands (ev):

   -54.1066 -54.1066 -53.2698 -53.2698 -53.2696 -53.2696 -26.0590 -26.0590
   -26.0479 -26.0479 -25.9410 -25.9410 -25.2273 -25.2272 -25.2267 -25.2266
   -25.1785 -25.1784 -25.1781 -25.1780 -25.1579 -25.1578 -25.1542 -25.1541
   -16.2706 -16.2706 -16.1175 -16.1175 -16.0583 -16.0583 -16.0551 -16.0551
   -15.8712 -15.8712  -8.2561  -8.2365  -5.2278  -5.2206  -3.7673  -3.6482
    -3.0340  -2.8984  -2.4639  -2.3948  -1.7370  -1.7164   0.5226   0.6804
     0.8990   1.3082   1.7181   1.8051   2.0005   2.2936   2.3465

          k = 0.0006 0.1609 0.2319 ( 45952 PWs)   bands (ev):

   -54.1066 -54.1066 -53.2698 -53.2698 -53.2696 -53.2696 -26.0590 -26.0590
   -26.0479 -26.0479 -25.9410 -25.9410 -25.2272 -25.2272 -25.2266 -25.2266
   -25.1785 -25.1785 -25.1781 -25.1780 -25.1579 -25.1578 -25.1542 -25.1541
   -16.2706 -16.2706 -16.1175 -16.1175 -16.0583 -16.0583 -16.0551 -16.0551
   -15.8712 -15.8712  -8.2512  -8.2413  -5.2260  -5.2223  -3.7598  -3.7045
    -2.9547  -2.8881  -2.4376  -2.4008  -1.7684  -1.7563   0.5351   0.6170
     0.9653   1.1695   1.7988   1.8569   2.0626   2.1614   2.4383

          k = 0.0000 0.3219 0.0000 ( 45932 PWs)   bands (ev):

   -54.1066 -54.1066 -53.2698 -53.2698 -53.2696 -53.2696 -26.0590 -26.0590
   -26.0479 -26.0479 -25.9410 -25.9410 -25.2272 -25.2272 -25.2267 -25.2266
   -25.1785 -25.1785 -25.1781 -25.1780 -25.1579 -25.1578 -25.1542 -25.1541
   -16.2706 -16.2706 -16.1175 -16.1175 -16.0583 -16.0583 -16.0551 -16.0551
   -15.8712 -15.8712  -8.2482  -8.2368  -5.2319  -5.2281  -3.8012  -3.7395
    -2.9887  -2.8945  -2.4088  -2.3762  -1.7100  -1.6977   0.5679   0.6692
     1.0088   1.3011   1.6796   1.7031   1.8455   2.1554   2.4194

          k = 0.0006 0.3219 0.2319 ( 46013 PWs)   bands (ev):

   -54.1066 -54.1066 -53.2698 -53.2698 -53.2696 -53.2696 -26.0590 -26.0590
   -26.0479 -26.0479 -25.9410 -25.9410 -25.2272 -25.2272 -25.2267 -25.2266
   -25.1785 -25.1785 -25.1781 -25.1780 -25.1579 -25.1578 -25.1542 -25.1541
   -16.2706 -16.2706 -16.1175 -16.1175 -16.0583 -16.0583 -16.0551 -16.0551
   -15.8712 -15.8712  -8.2453  -8.2396  -5.2311  -5.2292  -3.8051  -3.7760
    -2.9153  -2.8660  -2.4019  -2.3828  -1.7506  -1.7412   0.5830   0.6683
     0.9979   1.1406   1.7606   1.8427   1.9961   2.2091   2.4433

          k = 0.0000-0.4828 0.0000 ( 45908 PWs)   bands (ev):

   -54.1066 -54.1066 -53.2698 -53.2698 -53.2696 -53.2696 -26.0590 -26.0590
   -26.0479 -26.0479 -25.9410 -25.9410 -25.2272 -25.2272 -25.2267 -25.2267
   -25.1785 -25.1785 -25.1780 -25.1780 -25.1579 -25.1579 -25.1542 -25.1542
   -16.2706 -16.2706 -16.1175 -16.1175 -16.0583 -16.0583 -16.0551 -16.0551
   -15.8712 -15.8712  -8.2406  -8.2406  -5.2330  -5.2330  -3.7980  -3.7980
    -2.9326  -2.9326  -2.3762  -2.3762  -1.6918  -1.6918   0.7094   0.7094
     1.0049   1.0049   1.6902   1.6902   2.0338   2.0338   2.6329

          k = 0.0006-0.4828 0.2319 ( 45976 PWs)   bands (ev):

   -54.1066 -54.1066 -53.2698 -53.2698 -53.2696 -53.2696 -26.0590 -26.0590
   -26.0479 -26.0479 -25.9410 -25.9410 -25.2272 -25.2272 -25.2267 -25.2267
   -25.1785 -25.1785 -25.1780 -25.1780 -25.1579 -25.1579 -25.1542 -25.1542
   -16.2706 -16.2706 -16.1175 -16.1175 -16.0583 -16.0583 -16.0551 -16.0551
   -15.8712 -15.8712  -8.2405  -8.2405  -5.2333  -5.2333  -3.8167  -3.8167
    -2.8773  -2.8773  -2.3821  -2.3821  -1.7365  -1.7365   0.7428   0.7428
     0.9236   0.9236   1.8108   1.8108   2.1604   2.1604   2.5815

          k = 0.1674 0.0000 0.1164 ( 45930 PWs)   bands (ev):

   -54.1066 -54.1066 -53.2698 -53.2698 -53.2696 -53.2696 -26.0590 -26.0590
   -26.0479 -26.0479 -25.9410 -25.9410 -25.2272 -25.2272 -25.2267 -25.2266
   -25.1785 -25.1785 -25.1781 -25.1780 -25.1579 -25.1578 -25.1542 -25.1541
   -16.2706 -16.2706 -16.1175 -16.1175 -16.0583 -16.0583 -16.0551 -16.0551
   -15.8712 -15.8712  -8.2542  -8.2394  -5.2294  -5.2246  -3.7064  -3.6712
    -2.9581  -2.8972  -2.5280  -2.4201  -1.7905  -1.7316   0.4952   0.7347
     0.8407   1.1610   1.5546   1.8921   2.2630   2.4316   2.5515

          k = 0.1680 0.0000 0.3483 ( 45939 PWs)   bands (ev):

   -54.1066 -54.1066 -53.2698 -53.2698 -53.2696 -53.2696 -26.0590 -26.0590
   -26.0479 -26.0479 -25.9410 -25.9410 -25.2272 -25.2272 -25.2267 -25.2266
   -25.1785 -25.1784 -25.1781 -25.1780 -25.1579 -25.1578 -25.1542 -25.1541
   -16.2706 -16.2706 -16.1175 -16.1175 -16.0583 -16.0583 -16.0551 -16.0551
   -15.8712 -15.8712  -8.2489  -8.2445  -5.2289  -5.2252  -3.7660  -3.6364
    -2.9391  -2.8716  -2.4989  -2.4233  -1.8204  -1.7408   0.4308   0.7329
     0.8891   1.0690   1.7187   1.8934   2.0363   2.2565   2.7893

          k = 0.1668 0.0000-0.1155 ( 45922 PWs)   bands (ev):

   -54.1066 -54.1066 -53.2698 -53.2698 -53.2696 -53.2696 -26.0590 -26.0590
   -26.0479 -26.0479 -25.9410 -25.9410 -25.2273 -25.2272 -25.2267 -25.2266
   -25.1785 -25.1784 -25.1781 -25.1780 -25.1579 -25.1578 -25.1542 -25.1541
   -16.2706 -16.2706 -16.1175 -16.1175 -16.0583 -16.0583 -16.0551 -16.0551
   -15.8712 -15.8712  -8.2563  -8.2371  -5.2315  -5.2230  -3.7650  -3.5885
    -3.0160  -2.8692  -2.5015  -2.4625  -1.7556  -1.7354   0.5596   0.6581
     0.7505   1.3469   1.7192   1.7678   2.0250   2.1684   2.4368

          k = 0.1674 0.1609 0.1164 ( 45927 PWs)   bands (ev):

   -54.1066 -54.1066 -53.2698 -53.2698 -53.2696 -53.2696 -26.0590 -26.0590
   -26.0479 -26.0479 -25.9410 -25.9410 -25.2272 -25.2272 -25.2267 -25.2266
   -25.1785 -25.1785 -25.1781 -25.1780 -25.1579 -25.1578 -25.1542 -25.1541
   -16.2706 -16.2706 -16.1175 -16.1175 -16.0583 -16.0583 -16.0551 -16.0551
   -15.8712 -15.8712  -8.2513  -8.2385  -5.2317  -5.2272  -3.7357  -3.7012
    -2.9504  -2.8833  -2.5054  -2.4155  -1.7776  -1.7239   0.4934   0.7038
     0.9345   1.2755   1.5890   1.8440   2.1049   2.2750   2.5064

          k = 0.1680 0.1609 0.3483 ( 45911 PWs)   bands (ev):

   -54.1066 -54.1066 -53.2698 -53.2698 -53.2696 -53.2696 -26.0590 -26.0590
   -26.0479 -26.0479 -25.9410 -25.9410 -25.2272 -25.2272 -25.2267 -25.2266
   -25.1785 -25.1785 -25.1781 -25.1780 -25.1579 -25.1578 -25.1542 -25.1541
   -16.2706 -16.2706 -16.1175 -16.1175 -16.0583 -16.0583 -16.0551 -16.0551
   -15.8712 -15.8712  -8.2467  -8.2429  -5.2314  -5.2275  -3.7863  -3.6784
    -2.9234  -2.8566  -2.4828  -2.4145  -1.8075  -1.7411   0.4429   0.7101
     1.0150   1.1092   1.7272   1.8004   2.0200   2.2492   2.5952

          k = 0.1668 0.1609-0.1155 ( 45923 PWs)   bands (ev):

   -54.1066 -54.1066 -53.2698 -53.2698 -53.2696 -53.2696 -26.0590 -26.0590
   -26.0479 -26.0479 -25.9410 -25.9410 -25.2272 -25.2272 -25.2267 -25.2266
   -25.1785 -25.1784 -25.1781 -25.1780 -25.1579 -25.1578 -25.1542 -25.1541
   -16.2706 -16.2706 -16.1175 -16.1175 -16.0583 -16.0583 -16.0551 -16.0551
   -15.8712 -15.8712  -8.2532  -8.2365  -5.2332  -5.2259  -3.7828  -3.6375
    -3.0005  -2.8578  -2.4816  -2.4501  -1.7465  -1.7239   0.4721   0.7388
     0.8784   1.3656   1.6832   1.8187   1.8571   2.1164   2.4383

          k = 0.1674 0.3219 0.1164 ( 45953 PWs)   bands (ev):

   -54.1066 -54.1066 -53.2698 -53.2698 -53.2696 -53.2696 -26.0590 -26.0590
   -26.0479 -26.0479 -25.9410 -25.9410 -25.2272 -25.2272 -25.2267 -25.2266
   -25.1785 -25.1785 -25.1780 -25.1780 -25.1579 -25.1578 -25.1542 -25.1542
   -16.2706 -16.2706 -16.1175 -16.1175 -16.0583 -16.0583 -16.0551 -16.0551
   -15.8712 -15.8712  -8.2449  -8.2375  -5.2361  -5.2331  -3.7835  -3.7605
    -2.9228  -2.8713  -2.4661  -2.4169  -1.7446  -1.7118   0.6014   0.7122
     1.0294   1.3094   1.6739   1.7425   1.9042   2.1764   2.5343

          k = 0.1680 0.3219 0.3483 ( 46002 PWs)   bands (ev):

   -54.1066 -54.1066 -53.2698 -53.2698 -53.2696 -53.2696 -26.0590 -26.0590
   -26.0479 -26.0479 -25.9410 -25.9410 -25.2272 -25.2272 -25.2267 -25.2266
   -25.1785 -25.1785 -25.1780 -25.1780 -25.1579 -25.1578 -25.1542 -25.1542
   -16.2706 -16.2706 -16.1175 -16.1175 -16.0583 -16.0583 -16.0551 -16.0551
   -15.8712 -15.8712  -8.2422  -8.2400  -5.2361  -5.2331  -3.8169  -3.7583
    -2.8870  -2.8413  -2.4498  -2.4092  -1.7778  -1.7427   0.5706   0.7428
     1.0657   1.1384   1.6003   1.7891   2.1349   2.2151   2.5635

          k = 0.1668 0.3219-0.1155 ( 45951 PWs)   bands (ev):

   -54.1066 -54.1066 -53.2698 -53.2698 -53.2696 -53.2696 -26.0590 -26.0590
   -26.0479 -26.0479 -25.9410 -25.9410 -25.2272 -25.2272 -25.2267 -25.2266
   -25.1785 -25.1785 -25.1781 -25.1780 -25.1579 -25.1578 -25.1542 -25.1541
   -16.2706 -16.2706 -16.1175 -16.1175 -16.0583 -16.0583 -16.0551 -16.0551
   -15.8712 -15.8712  -8.2460  -8.2363  -5.2366  -5.2323  -3.8077  -3.7300
    -2.9579  -2.8625  -2.4455  -2.4282  -1.7233  -1.7049   0.5457   0.7759
     1.0557   1.2875   1.5247   1.7194   1.8383   2.2269   2.4203

          k = 0.1674-0.4828 0.1164 ( 45938 PWs)   bands (ev):

   -54.1066 -54.1066 -53.2698 -53.2698 -53.2696 -53.2696 -26.0590 -26.0590
   -26.0479 -26.0479 -25.9410 -25.9410 -25.2272 -25.2272 -25.2267 -25.2267
   -25.1785 -25.1785 -25.1780 -25.1780 -25.1578 -25.1578 -25.1542 -25.1542
   -16.2706 -16.2706 -16.1175 -16.1175 -16.0583 -16.0583 -16.0551 -16.0551
   -15.8712 -15.8712  -8.2393  -8.2393  -5.2373  -5.2373  -3.7964  -3.7964
    -2.8880  -2.8880  -2.4354  -2.4354  -1.7163  -1.7163   0.7686   0.7686
     1.0384   1.0384   1.8020   1.8020   1.9689   1.9689   2.6206

          k = 0.1680-0.4828 0.3483 ( 45968 PWs)   bands (ev):

   -54.1066 -54.1066 -53.2698 -53.2698 -53.2696 -53.2696 -26.0590 -26.0590
   -26.0479 -26.0479 -25.9410 -25.9410 -25.2272 -25.2272 -25.2267 -25.2267
   -25.1785 -25.1785 -25.1780 -25.1780 -25.1578 -25.1578 -25.1542 -25.1542
   -16.2706 -16.2706 -16.1175 -16.1175 -16.0583 -16.0583 -16.0551 -16.0551
   -15.8712 -15.8712  -8.2392  -8.2392  -5.2372  -5.2372  -3.8125  -3.8125
    -2.8529  -2.8529  -2.4227  -2.4227  -1.7528  -1.7528   0.8121   0.8121
     0.9401   0.9401   1.7488   1.7488   2.2020   2.2020   2.6368

          k = 0.1668-0.4828-0.1155 ( 45948 PWs)   bands (ev):

   -54.1066 -54.1066 -53.2698 -53.2698 -53.2696 -53.2696 -26.0590 -26.0590
   -26.0479 -26.0479 -25.9410 -25.9410 -25.2272 -25.2272 -25.2267 -25.2267
   -25.1785 -25.1785 -25.1780 -25.1780 -25.1578 -25.1578 -25.1542 -25.1542
   -16.2706 -16.2706 -16.1175 -16.1175 -16.0583 -16.0583 -16.0551 -16.0551
   -15.8712 -15.8712  -8.2393  -8.2393  -5.2370  -5.2370  -3.7950  -3.7950
    -2.9035  -2.9035  -2.4241  -2.4241  -1.7036  -1.7036   0.7681   0.7681
     1.0326   1.0326   1.6443   1.6443   2.0043   2.0043   2.7151

          k = 0.3348 0.0000 0.2328 ( 45927 PWs)   bands (ev):

   -54.1066 -54.1066 -53.2698 -53.2698 -53.2696 -53.2696 -26.0590 -26.0590
   -26.0479 -26.0479 -25.9410 -25.9410 -25.2272 -25.2272 -25.2267 -25.2266
   -25.1785 -25.1785 -25.1781 -25.1780 -25.1579 -25.1578 -25.1542 -25.1541
   -16.2706 -16.2705 -16.1175 -16.1175 -16.0583 -16.0583 -16.0551 -16.0551
   -15.8712 -15.8712  -8.2443  -8.2434  -5.2404  -5.2369  -3.7732  -3.6137
    -2.8546  -2.8238  -2.6348  -2.4528  -1.8407  -1.7260   0.3249   0.7176
     0.9571   1.0934   1.6097   1.9037   2.0799   2.3855   2.7211

          k = 0.3354 0.0000 0.4647 ( 45925 PWs)   bands (ev):

   -54.1066 -54.1066 -53.2698 -53.2698 -53.2696 -53.2696 -26.0590 -26.0590
   -26.0479 -26.0479 -25.9410 -25.9410 -25.2272 -25.2271 -25.2267 -25.2266
   -25.1785 -25.1784 -25.1781 -25.1780 -25.1579 -25.1578 -25.1542 -25.1541
   -16.2706 -16.2705 -16.1175 -16.1175 -16.0583 -16.0583 -16.0551 -16.0551
   -15.8712 -15.8712  -8.2500  -8.2376  -5.2429  -5.2348  -3.7981  -3.5682
    -2.9177  -2.7959  -2.6047  -2.4918  -1.8155  -1.7180   0.3367   0.6932
     0.8190   1.4344   1.5986   1.7589   2.0556   2.1002   2.5767

          k = 0.3343 0.0000 0.0009 ( 45961 PWs)   bands (ev):

   -54.1066 -54.1066 -53.2698 -53.2698 -53.2696 -53.2696 -26.0590 -26.0590
   -26.0479 -26.0479 -25.9410 -25.9410 -25.2272 -25.2272 -25.2267 -25.2266
   -25.1785 -25.1785 -25.1781 -25.1780 -25.1579 -25.1578 -25.1542 -25.1541
   -16.2706 -16.2706 -16.1175 -16.1175 -16.0583 -16.0583 -16.0551 -16.0551
   -15.8712 -15.8712  -8.2496  -8.2382  -5.2408  -5.2363  -3.7179  -3.6513
    -2.8944  -2.8048  -2.6061  -2.5345  -1.7688  -1.7517   0.5067   0.5521
     0.8965   1.2821   1.6240   1.8935   2.0144   2.1606   2.5519

          k = 0.3348 0.1609 0.2328 ( 45927 PWs)   bands (ev):

   -54.1066 -54.1066 -53.2698 -53.2698 -53.2696 -53.2696 -26.0590 -26.0590
   -26.0479 -26.0479 -25.9410 -25.9410 -25.2272 -25.2272 -25.2267 -25.2267
   -25.1785 -25.1785 -25.1781 -25.1780 -25.1579 -25.1578 -25.1542 -25.1542
   -16.2706 -16.2705 -16.1175 -16.1175 -16.0583 -16.0583 -16.0551 -16.0551
   -15.8712 -15.8712  -8.2425  -8.2416  -5.2421  -5.2383  -3.7859  -3.6522
    -2.8567  -2.8148  -2.6165  -2.4588  -1.8218  -1.7261   0.3918   0.7426
     1.0212   1.1818   1.5898   1.8518   2.0498   2.3913   2.4444

          k = 0.3354 0.1609 0.4647 ( 45932 PWs)   bands (ev):

   -54.1066 -54.1066 -53.2698 -53.2698 -53.2696 -53.2696 -26.0590 -26.0590
   -26.0479 -26.0479 -25.9410 -25.9410 -25.2272 -25.2271 -25.2267 -25.2266
   -25.1785 -25.1785 -25.1781 -25.1780 -25.1579 -25.1578 -25.1542 -25.1541
   -16.2706 -16.2706 -16.1175 -16.1175 -16.0583 -16.0583 -16.0551 -16.0551
   -15.8712 -15.8712  -8.2474  -8.2367  -5.2437  -5.2368  -3.8072  -3.6161
    -2.9110  -2.7944  -2.5868  -2.4884  -1.8015  -1.7149   0.3799   0.7526
     0.9226   1.3939   1.6474   1.7415   1.8924   2.1325   2.4590

          k = 0.3343 0.1609 0.0009 ( 45930 PWs)   bands (ev):

   -54.1066 -54.1066 -53.2698 -53.2698 -53.2696 -53.2696 -26.0590 -26.0590
   -26.0479 -26.0479 -25.9410 -25.9410 -25.2272 -25.2272 -25.2267 -25.2266
   -25.1785 -25.1785 -25.1780 -25.1780 -25.1579 -25.1578 -25.1542 -25.1542
   -16.2706 -16.2706 -16.1175 -16.1175 -16.0583 -16.0583 -16.0551 -16.0551
   -15.8712 -15.8712  -8.2471  -8.2372  -5.2422  -5.2380  -3.7380  -3.6785
    -2.8921  -2.8053  -2.5957  -2.5348  -1.7584  -1.7339   0.4946   0.6741
     0.9567   1.3565   1.6067   1.8778   1.9104   2.1146   2.4386

          k = 0.3348 0.3219 0.2328 ( 45915 PWs)   bands (ev):

   -54.1066 -54.1066 -53.2698 -53.2698 -53.2696 -53.2696 -26.0590 -26.0590
   -26.0479 -26.0479 -25.9410 -25.9410 -25.2272 -25.2272 -25.2267 -25.2267
   -25.1785 -25.1785 -25.1780 -25.1780 -25.1578 -25.1578 -25.1542 -25.1542
   -16.2706 -16.2706 -16.1175 -16.1175 -16.0583 -16.0583 -16.0551 -16.0551
   -15.8712 -15.8712  -8.2387  -8.2382  -5.2450  -5.2421  -3.8021  -3.7289
    -2.8472  -2.8149  -2.5739  -2.4851  -1.7814  -1.7302   0.6141   0.8309
     1.1285   1.3028   1.5608   1.6432   2.0778   2.2025   2.3808

          k = 0.3354 0.3219 0.4647 ( 45920 PWs)   bands (ev):

   -54.1066 -54.1066 -53.2698 -53.2698 -53.2696 -53.2696 -26.0590 -26.0590
   -26.0479 -26.0479 -25.9410 -25.9410 -25.2272 -25.2271 -25.2267 -25.2267
   -25.1785 -25.1785 -25.1780 -25.1780 -25.1579 -25.1578 -25.1542 -25.1542
   -16.2706 -16.2706 -16.1175 -16.1175 -16.0583 -16.0583 -16.0551 -16.0551
   -15.8712 -15.8712  -8.2416  -8.2354  -5.2454  -5.2413  -3.8141  -3.7107
    -2.8882  -2.8130  -2.5450  -2.4912  -1.7685  -1.7159   0.5766   0.8654
     1.1787   1.2722   1.4369   1.6870   1.9351   2.2083   2.2624

          k = 0.3343 0.3219 0.0009 ( 45904 PWs)   bands (ev):

   -54.1066 -54.1066 -53.2698 -53.2698 -53.2696 -53.2696 -26.0590 -26.0590
   -26.0479 -26.0479 -25.9410 -25.9410 -25.2272 -25.2272 -25.2267 -25.2267
   -25.1785 -25.1785 -25.1780 -25.1780 -25.1578 -25.1578 -25.1542 -25.1542
   -16.2706 -16.2706 -16.1175 -16.1175 -16.0583 -16.0583 -16.0551 -16.0551
   -15.8712 -15.8712  -8.2414  -8.2357  -5.2450  -5.2422  -3.7699  -3.7342
    -2.8750  -2.8161  -2.5784  -2.5451  -1.7293  -1.7090   0.6482   0.8260
     1.1327   1.4293   1.5540   1.6262   1.8127   2.0425   2.4166

          k = 0.3348-0.4828 0.2328 ( 45946 PWs)   bands (ev):

   -54.1066 -54.1066 -53.2698 -53.2698 -53.2696 -53.2696 -26.0590 -26.0590
   -26.0479 -26.0479 -25.9410 -25.9410 -25.2272 -25.2272 -25.2267 -25.2267
   -25.1785 -25.1785 -25.1780 -25.1780 -25.1578 -25.1578 -25.1542 -25.1542
   -16.2706 -16.2706 -16.1175 -16.1175 -16.0583 -16.0583 -16.0551 -16.0551
   -15.8712 -15.8712  -8.2367  -8.2367  -5.2453  -5.2453  -3.7867  -3.7867
    -2.8292  -2.8292  -2.5275  -2.5275  -1.7474  -1.7474   0.8916   0.8916
     1.1349   1.1349   1.6208   1.6208   2.0566   2.0566   2.4935

          k = 0.3354-0.4828 0.4647 ( 45952 PWs)   bands (ev):

   -54.1066 -54.1066 -53.2698 -53.2698 -53.2696 -53.2696 -26.0590 -26.0590
   -26.0479 -26.0479 -25.9410 -25.9410 -25.2272 -25.2272 -25.2267 -25.2267
   -25.1785 -25.1785 -25.1780 -25.1780 -25.1578 -25.1578 -25.1542 -25.1542
   -16.2706 -16.2706 -16.1175 -16.1175 -16.0583 -16.0583 -16.0551 -16.0551
   -15.8712 -15.8712  -8.2367  -8.2367  -5.2450  -5.2450  -3.7853  -3.7853
    -2.8512  -2.8512  -2.5099  -2.5099  -1.7348  -1.7348   0.8968   0.8968
     1.1090   1.1090   1.5543   1.5543   2.0290   2.0290   2.5069

          k = 0.3343-0.4828 0.0009 ( 45916 PWs)   bands (ev):

   -54.1066 -54.1066 -53.2698 -53.2698 -53.2696 -53.2696 -26.0590 -26.0590
   -26.0479 -26.0479 -25.9410 -25.9410 -25.2272 -25.2272 -25.2267 -25.2267
   -25.1785 -25.1785 -25.1780 -25.1780 -25.1578 -25.1578 -25.1542 -25.1542
   -16.2706 -16.2706 -16.1175 -16.1175 -16.0583 -16.0583 -16.0551 -16.0551
   -15.8712 -15.8712  -8.2368  -8.2368  -5.2454  -5.2454  -3.7724  -3.7724
    -2.8437  -2.8437  -2.5623  -2.5623  -1.7066  -1.7066   0.8850   0.8850
     1.2105   1.2105   1.6458   1.6458   1.7757   1.7757   2.7072

          k =-0.5022 0.0000-0.3492 ( 45920 PWs)   bands (ev):

   -54.1066 -54.1066 -53.2698 -53.2698 -53.2696 -53.2696 -26.0590 -26.0590
   -26.0479 -26.0479 -25.9410 -25.9410 -25.2272 -25.2271 -25.2267 -25.2266
   -25.1785 -25.1784 -25.1781 -25.1780 -25.1579 -25.1578 -25.1542 -25.1541
   -16.2706 -16.2705 -16.1175 -16.1175 -16.0583 -16.0583 -16.0551 -16.0551
   -15.8712 -15.8712  -8.2468  -8.2379  -5.2486  -5.2407  -3.8124  -3.5571
    -2.7770  -2.7716  -2.7669  -2.4712  -1.8459  -1.7137   0.2439   0.6854
     0.8517   1.4873   1.4942   1.7299   2.1311   2.3093   2.6779

          k =-0.5017 0.0000-0.1173 ( 45899 PWs)   bands (ev):

   -54.1066 -54.1066 -53.2698 -53.2698 -53.2696 -53.2696 -26.0590 -26.0590
   -26.0479 -26.0479 -25.9410 -25.9410 -25.2272 -25.2272 -25.2267 -25.2267
   -25.1785 -25.1785 -25.1781 -25.1780 -25.1579 -25.1578 -25.1542 -25.1541
   -16.2706 -16.2705 -16.1175 -16.1175 -16.0583 -16.0583 -16.0551 -16.0551
   -15.8712 -15.8712  -8.2446  -8.2402  -5.2463  -5.2424  -3.7512  -3.6227
    -2.7834  -2.7704  -2.7019  -2.5655  -1.8048  -1.7375   0.3714   0.5971
     0.9465   1.1865   1.7829   1.8525   2.0575   2.1180   2.6544

          k =-0.5022 0.1609-0.3492 ( 45922 PWs)   bands (ev):

   -54.1066 -54.1066 -53.2698 -53.2698 -53.2696 -53.2696 -26.0590 -26.0590
   -26.0479 -26.0479 -25.9410 -25.9410 -25.2272 -25.2271 -25.2267 -25.2266
   -25.1786 -25.1785 -25.1781 -25.1780 -25.1579 -25.1578 -25.1542 -25.1541
   -16.2706 -16.2705 -16.1175 -16.1175 -16.0583 -16.0583 -16.0551 -16.0551
   -15.8712 -15.8712  -8.2444  -8.2368  -5.2489  -5.2424  -3.8170  -3.6047
    -2.8152  -2.7891  -2.6901  -2.4775  -1.8299  -1.7154   0.3307   0.7352
     0.9561   1.4337   1.5971   1.6796   1.9631   2.3365   2.5220

          k =-0.5017 0.1609-0.1173 ( 45918 PWs)   bands (ev):

   -54.1066 -54.1066 -53.2698 -53.2698 -53.2696 -53.2696 -26.0590 -26.0590
   -26.0479 -26.0479 -25.9410 -25.9410 -25.2272 -25.2272 -25.2267 -25.2267
   -25.1785 -25.1785 -25.1780 -25.1780 -25.1579 -25.1578 -25.1542 -25.1542
   -16.2706 -16.2705 -16.1175 -16.1175 -16.0583 -16.0583 -16.0551 -16.0551
   -15.8712 -15.8712  -8.2426  -8.2388  -5.2471  -5.2439  -3.7625  -3.6548
    -2.7908  -2.7727  -2.6874  -2.5731  -1.7871  -1.7280   0.4488   0.6591
     1.0338   1.2304   1.7349   1.8578   1.9943   2.0665   2.4276

          k =-0.5022 0.3219-0.3492 ( 45918 PWs)   bands (ev):

   -54.1066 -54.1066 -53.2698 -53.2698 -53.2696 -53.2696 -26.0590 -26.0590
   -26.0479 -26.0479 -25.9410 -25.9410 -25.2272 -25.2271 -25.2267 -25.2267
   -25.1786 -25.1785 -25.1780 -25.1780 -25.1579 -25.1578 -25.1542 -25.1542
   -16.2706 -16.2705 -16.1175 -16.1175 -16.0583 -16.0583 -16.0551 -16.0551
   -15.8712 -15.8712  -8.2393  -8.2349  -5.2495  -5.2462  -3.8148  -3.7000
    -2.8334  -2.8127  -2.6073  -2.5024  -1.7928  -1.7262   0.5978   0.8889
     1.1861   1.3348   1.4888   1.6118   1.9554   2.1956   2.4290

          k =-0.5017 0.3219-0.1173 ( 45896 PWs)   bands (ev):

   -54.1066 -54.1066 -53.2698 -53.2698 -53.2696 -53.2696 -26.0590 -26.0590
   -26.0479 -26.0479 -25.9410 -25.9410 -25.2272 -25.2271 -25.2267 -25.2267
   -25.1785 -25.1785 -25.1780 -25.1780 -25.1578 -25.1578 -25.1542 -25.1542
   -16.2706 -16.2705 -16.1175 -16.1175 -16.0583 -16.0583 -16.0551 -16.0551
   -15.8712 -15.8712  -8.2383  -8.2361  -5.2489  -5.2472  -3.7779  -3.7191
    -2.7961  -2.7818  -2.6606  -2.5983  -1.7502  -1.7153   0.6875   0.8416
     1.2300   1.2924   1.5932   1.6968   1.8703   1.9589   2.2922

          k =-0.5022-0.4828-0.3492 ( 45888 PWs)   bands (ev):

   -54.1066 -54.1066 -53.2698 -53.2698 -53.2696 -53.2696 -26.0590 -26.0590
   -26.0479 -26.0479 -25.9410 -25.9410 -25.2271 -25.2271 -25.2267 -25.2267
   -25.1785 -25.1785 -25.1780 -25.1780 -25.1578 -25.1578 -25.1542 -25.1542
   -16.2706 -16.2706 -16.1175 -16.1175 -16.0583 -16.0583 -16.0551 -16.0551
   -15.8712 -15.8712  -8.2354  -8.2354  -5.2491  -5.2491  -3.7784  -3.7784
    -2.8309  -2.8309  -2.5454  -2.5454  -1.7535  -1.7535   0.9480   0.9480
     1.2245   1.2245   1.4459   1.4459   2.1322   2.1323   2.3382

          k =-0.5017-0.4828-0.1173 ( 45914 PWs)   bands (ev):

   -54.1066 -54.1066 -53.2698 -53.2698 -53.2696 -53.2696 -26.0590 -26.0590
   -26.0479 -26.0479 -25.9410 -25.9410 -25.2271 -25.2271 -25.2267 -25.2267
   -25.1785 -25.1785 -25.1780 -25.1780 -25.1578 -25.1578 -25.1542 -25.1542
   -16.2706 -16.2706 -16.1175 -16.1175 -16.0583 -16.0583 -16.0551 -16.0551
   -15.8712 -15.8712  -8.2354  -8.2354  -5.2495  -5.2495  -3.7669  -3.7669
    -2.7920  -2.7920  -2.6309  -2.6309  -1.7218  -1.7218   0.9580   0.9580
     1.3129   1.3129   1.4969   1.4969   1.8053   1.8053   2.5059

     the Fermi energy is    -0.1714 ev

!    total energy              =   -1141.48496471 Ry
     estimated scf accuracy    <          4.0E-09 Ry
     smearing contrib. (-TS)   =      -0.00000000 Ry
     internal energy E=F+TS    =   -1141.48496471 Ry

     The total energy is F=E-TS. E is the sum of the following terms:
     one-electron contribution =   -1001.73059570 Ry
     hartree contribution      =     520.20670426 Ry
     xc contribution           =    -170.15935237 Ry
     ewald contribution        =    -267.24278322 Ry
     one-center paw contrib.   =    -222.55893767 Ry

     convergence has been achieved in  20 iterations

     Forces acting on atoms (cartesian axes, Ry/au):

     atom    1 type  2   force =     0.00000000    0.00000000    0.00000000
     atom    2 type  2   force =     0.00000000    0.00000000    0.00000000
     atom    3 type  3   force =     0.00000000    0.00000000    0.00000000
     atom    4 type  3   force =     0.00000000    0.00000000    0.00000000
     atom    5 type  3   force =     0.00327005    0.00335264   -0.00175252
     atom    6 type  3   force =    -0.00327005   -0.00335264    0.00175252
     atom    7 type  3   force =    -0.00327005    0.00335264    0.00175252
     atom    8 type  3   force =     0.00327005   -0.00335264   -0.00175252
     atom    9 type  1   force =    -0.00841401    0.00945596   -0.00123350
     atom   10 type  1   force =     0.00841401   -0.00945596    0.00123350
     atom   11 type  1   force =     0.00841401    0.00945596    0.00123350
     atom   12 type  1   force =    -0.00841401   -0.00945596   -0.00123350
     atom   13 type  1   force =     0.01025117   -0.01518441   -0.01068061
     atom   14 type  1   force =    -0.01025117    0.01518441    0.01068061
     atom   15 type  1   force =    -0.01025117   -0.01518441    0.01068061
     atom   16 type  1   force =     0.01025117    0.01518441   -0.01068061
     atom   17 type  1   force =     0.01273789    0.00480946    0.00073103
     atom   18 type  1   force =    -0.01273789   -0.00480946   -0.00073103
     atom   19 type  1   force =    -0.01273789    0.00480946   -0.00073103
     atom   20 type  1   force =     0.01273789   -0.00480946    0.00073103

     Total force =     0.057354     Total SCF correction =     0.000056


     Computing stress (Cartesian axis) and pressure

          total   stress  (Ry/bohr**3)                   (kbar)     P=      -14.55
  -0.00011449   0.00000000  -0.00009413          -16.84        0.00      -13.85
   0.00000000  -0.00009014   0.00000000            0.00      -13.26        0.00
  -0.00009413   0.00000000  -0.00009200          -13.85        0.00      -13.53

     Energy error            =      8.6E-03 Ry
     Gradient error          =      1.5E-02 Ry/Bohr
     Cell gradient error     =      1.7E+01 kbar

     number of scf cycles    =   2
     number of bfgs steps    =   1

     enthalpy           old  =   -1141.4763267728 Ry
     enthalpy           new  =   -1141.4849647083 Ry

     CASE: enthalpy          _new < enthalpy          _old


     WARNING: bfgs curvature condition failed, Theta= 0.830
     new trust radius        =       0.0519717192 bohr
     new conv_thr            =       0.0000000015 Ry

     new unit-cell volume =   4124.18776 a.u.^3 (   611.14157 Ang^3 )
     density =      0.78652 g/cm^3

CELL_PARAMETERS (alat= 14.09520260)
   0.994207284   0.000000000  -0.005005428
   0.000000000   1.033019652   0.000000000
  -1.001979898   0.000000000   1.439010833

ATOMIC_POSITIONS (crystal)
Ga            0.5000000000        0.0000000000        0.0000000000
Ga            0.5000000000        0.5000000000        0.5000000000
Na            0.0000000000        0.0000000000        0.5000000000
Na            0.0000000000        0.5000000000        0.0000000000
Na            0.2701444658        0.8593856872        0.3574186653
Na            0.7298555342        0.1406143128        0.6425813347
Na            0.7298555342        0.3593856872        0.1425813347
Na            0.2701444658        0.6406143128        0.8574186653
H             0.3361104190        0.8544437989        0.5395505152
H             0.6638895810        0.1455562011        0.4604494848
H             0.6638895810        0.3544437989        0.9604494848
H             0.3361104190        0.6455562011        0.0395505152
H             0.6672948469        0.8931109822        0.9935454400
H             0.3327051531        0.1068890178        0.0064545600
H             0.3327051531        0.3931109822        0.5064545600
H             0.6672948469        0.6068890178        0.4935454400
H             0.2240239409        0.9151522389        0.8324345617
H             0.7759760591        0.0848477611        0.1675654383
H             0.7759760591        0.4151522389        0.6675654383
H             0.2240239409        0.5848477611        0.3324345617



     Writing config-only to output data dir ./na3gah6.save/
     NEW-OLD atomic charge density approx. for the potential
     extrapolated charge   91.25826, renormalised to   92.00000

     total cpu time spent up to now is      143.8 secs

     Self-consistent Calculation

     iteration #  1     ecut=    75.00 Ry     beta= 0.70
     Davidson diagonalization with overlap
     ethr =  1.00E-06,  avg # of iterations = 14.3

     total cpu time spent up to now is      155.1 secs

     total energy              =   -1141.41249711 Ry
     estimated scf accuracy    <       0.07860058 Ry

     iteration #  2     ecut=    75.00 Ry     beta= 0.70
     Davidson diagonalization with overlap
     ethr =  8.54E-05,  avg # of iterations =  6.1

     total cpu time spent up to now is      161.3 secs

     total energy              =   -1141.48686700 Ry
     estimated scf accuracy    <       0.20722738 Ry

     iteration #  3     ecut=    75.00 Ry     beta= 0.70
     Davidson diagonalization with overlap
     ethr =  8.54E-05,  avg # of iterations =  2.0

     total cpu time spent up to now is      164.9 secs

     total energy              =   -1141.49115119 Ry
     estimated scf accuracy    <       0.06195255 Ry

     iteration #  4     ecut=    75.00 Ry     beta= 0.70
     Davidson diagonalization with overlap
     ethr =  6.73E-05,  avg # of iterations =  1.0

     total cpu time spent up to now is      168.1 secs

     total energy              =   -1141.48795703 Ry
     estimated scf accuracy    <       0.04246529 Ry

     iteration #  5     ecut=    75.00 Ry     beta= 0.70
     Davidson diagonalization with overlap
     ethr =  4.62E-05,  avg # of iterations =  2.0

     total cpu time spent up to now is      171.6 secs

     total energy              =   -1141.48397942 Ry
     estimated scf accuracy    <       0.02462953 Ry

     iteration #  6     ecut=    75.00 Ry     beta= 0.70
     Davidson diagonalization with overlap
     ethr =  2.68E-05,  avg # of iterations =  6.0

     total cpu time spent up to now is      176.2 secs

     total energy              =   -1141.49446072 Ry
     estimated scf accuracy    <       0.00470099 Ry

     iteration #  7     ecut=    75.00 Ry     beta= 0.70
     Davidson diagonalization with overlap
     ethr =  5.11E-06,  avg # of iterations =  3.0

     total cpu time spent up to now is      179.8 secs

[...]
    -0.5122  -0.5122   1.5541   1.5541   1.7664   1.7664   5.1271   5.1271
     6.9737   6.9738   7.5468   7.5468   7.8987   7.8987   8.5345

          k = 0.2308-0.6710-0.1589 ( 45948 PWs)   bands (ev):

   -49.0888 -49.0888 -49.0885 -49.0885 -48.7206 -48.7206 -21.0270 -21.0270
   -21.0262 -21.0262 -21.0133 -21.0133 -21.0040 -21.0040 -21.0020 -21.0020
   -21.0012 -21.0012 -20.6585 -20.6585 -20.6543 -20.6543 -20.6494 -20.6494
   -11.4066 -11.4066 -11.3965 -11.3965 -11.2870 -11.2870 -11.2805 -11.2805
   -11.2723 -11.2723  -4.9182  -4.9182  -1.6471  -1.6471  -0.8459  -0.8459
    -0.6538  -0.6538   1.4029   1.4029   1.9184   1.9184   5.5429   5.5429
     6.4723   6.4723   7.2221   7.2221   8.2221   8.2221   8.9212

          k = 0.4649 0.0000 0.3096 ( 45927 PWs)   bands (ev):

   -49.0889 -49.0888 -49.0885 -49.0884 -48.7206 -48.7206 -21.0281 -21.0264
   -21.0258 -21.0248 -21.0114 -21.0096 -21.0057 -21.0055 -21.0032 -21.0031
   -21.0024 -21.0013 -20.6585 -20.6582 -20.6549 -20.6541 -20.6498 -20.6490
   -11.4065 -11.4056 -11.3975 -11.3965 -11.2870 -11.2868 -11.2807 -11.2804
   -11.2725 -11.2723  -5.0726  -4.8833  -1.8080  -1.6122  -0.7216  -0.7036
    -0.3669  -0.3175   1.1830   1.6265   1.6932   1.9890   4.5933   5.0655
     6.6903   7.1227   7.2157   7.3232   7.5462   7.6217   7.9644

          k = 0.4666 0.0000 0.6234 ( 45925 PWs)   bands (ev):

   -49.0889 -49.0888 -49.0885 -49.0884 -48.7206 -48.7206 -21.0275 -21.0273
   -21.0252 -21.0250 -21.0118 -21.0098 -21.0054 -21.0046 -21.0043 -21.0029
   -21.0019 -21.0017 -20.6584 -20.6583 -20.6550 -20.6540 -20.6501 -20.6487
   -11.4062 -11.4059 -11.3972 -11.3968 -11.2871 -11.2868 -11.2807 -11.2803
   -11.2724 -11.2724  -5.0706  -4.8852  -1.7987  -1.6216  -0.8549  -0.4493
    -0.4127  -0.4049   1.3920   1.4763   1.7042   1.8893   4.6113   5.2469
     6.7219   6.7693   7.0221   7.1458   7.6671   7.7556   8.3854

          k = 0.4633 0.0000-0.0041 ( 45961 PWs)   bands (ev):

   -49.0890 -49.0887 -49.0886 -49.0883 -48.7206 -48.7206 -21.0282 -21.0266
   -21.0257 -21.0246 -21.0145 -21.0126 -21.0052 -21.0040 -21.0027 -21.0017
   -21.0015 -21.0000 -20.6585 -20.6582 -20.6546 -20.6544 -20.6497 -20.6491
   -11.4064 -11.4058 -11.3974 -11.3967 -11.2870 -11.2868 -11.2805 -11.2805
   -11.2726 -11.2723  -5.1661  -4.7956  -1.5786  -1.2784  -1.2648  -0.7198
    -0.4847  -0.3275   1.1333   1.7228   1.7318   1.9192   4.5251   5.8750
     6.4229   6.8108   6.9284   7.4274   7.5192   7.7541   8.3188

          k = 0.4649 0.2237 0.3096 ( 45927 PWs)   bands (ev):

   -49.0889 -49.0888 -49.0886 -49.0884 -48.7206 -48.7206 -21.0286 -21.0273
   -21.0260 -21.0250 -21.0115 -21.0100 -21.0057 -21.0051 -21.0036 -21.0022
   -21.0020 -21.0008 -20.6584 -20.6582 -20.6548 -20.6542 -20.6497 -20.6491
   -11.4065 -11.4057 -11.3974 -11.3965 -11.2870 -11.2869 -11.2807 -11.2804
   -11.2724 -11.2722  -5.0222  -4.8526  -1.7269  -1.5602  -0.9874  -0.6735
    -0.5918  -0.4359   1.2827   1.4958   1.8631   1.9359   4.8316   5.3500
     6.6421   6.8802   6.9792   7.4439   7.7880   7.9737   8.3978

          k = 0.4666 0.2237 0.6234 ( 45932 PWs)   bands (ev):

   -49.0889 -49.0888 -49.0886 -49.0884 -48.7206 -48.7206 -21.0284 -21.0275
   -21.0260 -21.0250 -21.0118 -21.0102 -21.0053 -21.0046 -21.0037 -21.0025
   -21.0020 -21.0007 -20.6583 -20.6583 -20.6549 -20.6541 -20.6500 -20.6488
   -11.4062 -11.4060 -11.3971 -11.3968 -11.2871 -11.2868 -11.2807 -11.2804
   -11.2723 -11.2723  -5.0202  -4.8544  -1.7191  -1.5712  -0.9843  -0.6910
    -0.5848  -0.4371   1.4780   1.5139   1.7084   1.8431   4.9664   5.4286
     6.4352   6.7404   7.0171   7.3673   7.9311   8.0769   8.2696

          k = 0.4633 0.2237-0.0041 ( 45930 PWs)   bands (ev):

   -49.0890 -49.0887 -49.0886 -49.0884 -48.7206 -48.7206 -21.0287 -21.0272
   -21.0260 -21.0249 -21.0146 -21.0130 -21.0051 -21.0033 -21.0026 -21.0016
   -21.0006 -21.0000 -20.6585 -20.6582 -20.6547 -20.6544 -20.6496 -20.6491
   -11.4064 -11.4059 -11.3973 -11.3967 -11.2870 -11.2869 -11.2806 -11.2805
   -11.2725 -11.2722  -5.1078  -4.7764  -1.5142  -1.2771  -1.2038  -0.8684
    -0.6338  -0.5395   1.2436   1.4095   1.8880   1.9578   4.8795   5.9521
     6.4154   6.6869   7.0272   7.2804   7.8438   8.1182   8.3652

          k = 0.4649 0.4473 0.3096 ( 45915 PWs)   bands (ev):

   -49.0888 -49.0887 -49.0886 -49.0885 -48.7206 -48.7206 -21.0291 -21.0284
   -21.0268 -21.0264 -21.0116 -21.0107 -21.0052 -21.0047 -21.0026 -21.0017
   -21.0009 -21.0003 -20.6583 -20.6582 -20.6547 -20.6543 -20.6496 -20.6492
   -11.4064 -11.4059 -11.3971 -11.3965 -11.2870 -11.2870 -11.2807 -11.2805
   -11.2722 -11.2721  -4.9028  -4.7971  -1.5636  -1.4735  -1.3290  -0.9982
    -0.6796  -0.6295   1.2941   1.3208   1.9126   1.9831   5.4615   5.9191
     6.3708   6.8645   7.1718   7.5177   7.7769   8.4748   8.4956

          k = 0.4666 0.4473 0.6234 ( 45920 PWs)   bands (ev):

   -49.0888 -49.0887 -49.0886 -49.0885 -48.7206 -48.7206 -21.0290 -21.0285
   -21.0269 -21.0263 -21.0118 -21.0109 -21.0049 -21.0039 -21.0031 -21.0019
   -21.0011 -21.0003 -20.6583 -20.6583 -20.6547 -20.6542 -20.6498 -20.6490
   -11.4062 -11.4061 -11.3969 -11.3967 -11.2871 -11.2869 -11.2807 -11.2805
   -11.2721 -11.2721  -4.9012  -4.7983  -1.5471  -1.4947  -1.3289  -0.9988
    -0.6821  -0.6313   1.3231   1.4100   1.8476   1.9103   5.7448   5.8400
     6.2726   6.9091   7.0965   7.3915   7.5638   8.5376   8.7192

          k = 0.4633 0.4473-0.0041 ( 45904 PWs)   bands (ev):

   -49.0889 -49.0887 -49.0886 -49.0884 -48.7206 -48.7206 -21.0290 -21.0283
   -21.0269 -21.0265 -21.0148 -21.0138 -21.0040 -21.0025 -21.0018 -21.0009
   -21.0001 -20.9998 -20.6584 -20.6582 -20.6547 -20.6545 -20.6494 -20.6491
   -11.4064 -11.4061 -11.3970 -11.3966 -11.2871 -11.2870 -11.2806 -11.2806
   -11.2722 -11.2721  -4.9622  -4.7566  -1.4623  -1.3744  -1.1086  -1.0548
    -0.8172  -0.7298   1.0091   1.1306   1.9972   2.0784   5.7151   6.0498
     6.3306   6.7338   7.1894   7.7707   8.0155   8.3423   8.6451

          k = 0.4649-0.6710 0.3096 ( 45946 PWs)   bands (ev):

   -49.0887 -49.0887 -49.0886 -49.0886 -48.7206 -48.7206 -21.0289 -21.0289
   -21.0274 -21.0274 -21.0114 -21.0114 -21.0048 -21.0048 -21.0012 -21.0012
   -21.0008 -21.0008 -20.6583 -20.6583 -20.6545 -20.6545 -20.6494 -20.6494
   -11.4062 -11.4062 -11.3967 -11.3967 -11.2870 -11.2870 -11.2806 -11.2806
   -11.2720 -11.2720  -4.8024  -4.8024  -1.5744  -1.5744  -1.1516  -1.1516
    -0.7623  -0.7623   1.2515   1.2515   1.9574   1.9574   5.9667   5.9667
     6.5307   6.5307   7.6563   7.6563   8.0700   8.0700   8.9089

          k = 0.4666-0.6710 0.6234 ( 45952 PWs)   bands (ev):

   -49.0887 -49.0887 -49.0886 -49.0886 -48.7206 -48.7206 -21.0289 -21.0289
   -21.0274 -21.0274 -21.0115 -21.0115 -21.0043 -21.0043 -21.0015 -21.0015
   -21.0008 -21.0008 -20.6583 -20.6583 -20.6544 -20.6544 -20.6494 -20.6494
   -11.4062 -11.4062 -11.3967 -11.3967 -11.2870 -11.2870 -11.2806 -11.2806
   -11.2720 -11.2720  -4.8022  -4.8022  -1.5714  -1.5714  -1.1683  -1.1683
    -0.7495  -0.7495   1.2724   1.2724   1.9314   1.9314   5.9468   5.9468
     6.8725   6.8725   7.1642   7.1642   8.0754   8.0754   8.8047

          k = 0.4633-0.6710-0.0041 ( 45916 PWs)   bands (ev):

   -49.0888 -49.0888 -49.0885 -49.0885 -48.7206 -48.7206 -21.0282 -21.0282
   -21.0281 -21.0281 -21.0146 -21.0146 -21.0028 -21.0028 -21.0007 -21.0007
   -21.0000 -21.0000 -20.6583 -20.6583 -20.6546 -20.6546 -20.6492 -20.6492
   -11.4063 -11.4063 -11.3967 -11.3967 -11.2871 -11.2871 -11.2806 -11.2806
   -11.2720 -11.2720  -4.8151  -4.8151  -1.5243  -1.5243  -0.9642  -0.9642
    -0.8727  -0.8727   0.9089   0.9089   2.0855   2.0855   6.0902   6.0902
     6.5631   6.5631   7.8135   7.8135   8.3311   8.3311   8.6238

          k =-0.6974 0.0000-0.4645 ( 45920 PWs)   bands (ev):

   -49.0887 -49.0887 -49.0886 -49.0886 -48.7206 -48.7206 -21.0273 -21.0260
   -21.0254 -21.0246 -21.0085 -21.0080 -21.0076 -21.0068 -21.0053 -21.0041
   -21.0027 -21.0019 -20.6583 -20.6581 -20.6551 -20.6540 -20.6501 -20.6487
   -11.4062 -11.4054 -11.3975 -11.3966 -11.2871 -11.2868 -11.2808 -11.2803
   -11.2723 -11.2722  -4.9026  -4.8997  -1.9945  -1.9913  -0.7012  -0.4280
    -0.3460  -0.2885   1.2948   1.5646   1.6076   1.9297   4.7338   4.7573
     6.5598   6.5884   7.5961   7.7844   8.0771   8.2970   8.2979

          k =-0.6957 0.0000-0.1507 ( 45899 PWs)   bands (ev):

   -49.0888 -49.0888 -49.0885 -49.0885 -48.7206 -48.7206 -21.0270 -21.0264
   -21.0251 -21.0248 -21.0131 -21.0130 -21.0053 -21.0047 -21.0030 -21.0028
   -21.0017 -21.0013 -20.6582 -20.6582 -20.6549 -20.6543 -20.6497 -20.6490
   -11.4060 -11.4057 -11.3973 -11.3968 -11.2870 -11.2869 -11.2807 -11.2805
   -11.2723 -11.2723  -4.9199  -4.9184  -1.7694  -1.7539  -0.8889  -0.7709
    -0.4057  -0.3544   1.3739   1.5242   1.7019   1.8789   5.0414   5.0767
     6.6439   6.7555   7.2938   7.3963   7.5235   7.6941   8.4502

          k =-0.6974 0.2237-0.4645 ( 45922 PWs)   bands (ev):

   -49.0887 -49.0887 -49.0886 -49.0886 -48.7206 -48.7206 -21.0279 -21.0267
   -21.0262 -21.0258 -21.0087 -21.0083 -21.0074 -21.0068 -21.0041 -21.0031
   -21.0021 -21.0014 -20.6582 -20.6581 -20.6550 -20.6541 -20.6500 -20.6488
   -11.4062 -11.4055 -11.3974 -11.3966 -11.2871 -11.2868 -11.2808 -11.2804
   -11.2722 -11.2721  -4.8653  -4.8626  -1.9016  -1.9009  -0.8125  -0.5981
    -0.5275  -0.5156   1.3542   1.5359   1.7450   1.8671   4.9481   5.1428
     6.5101   6.9658   7.3860   7.6620   7.8147   8.3727   8.5069

          k =-0.6957 0.2237-0.1507 ( 45918 PWs)   bands (ev):

   -49.0888 -49.0888 -49.0885 -49.0885 -48.7206 -48.7206 -21.0276 -21.0270
   -21.0261 -21.0259 -21.0133 -21.0132 -21.0044 -21.0040 -21.0025 -21.0021
   -21.0016 -21.0009 -20.6582 -20.6582 -20.6548 -20.6544 -20.6496 -20.6490
   -11.4061 -11.4058 -11.3972 -11.3968 -11.2870 -11.2869 -11.2807 -11.2805
   -11.2722 -11.2722  -4.8811  -4.8796  -1.7102  -1.6874  -0.9179  -0.7885
    -0.6187  -0.5782   1.2625   1.3577   1.8546   1.9324   5.3139   5.4488
     6.4540   6.5571   7.2413   7.5367   7.9776   8.2307   8.4587

          k =-0.6974 0.4473-0.4645 ( 45918 PWs)   bands (ev):

   -49.0887 -49.0887 -49.0886 -49.0886 -48.7206 -48.7206 -21.0294 -21.0287
   -21.0274 -21.0273 -21.0090 -21.0088 -21.0071 -21.0067 -21.0020 -21.0015
   -21.0009 -21.0005 -20.6582 -20.6581 -20.6548 -20.6543 -20.6497 -20.6490
   -11.4061 -11.4058 -11.3971 -11.3967 -11.2871 -11.2869 -11.2808 -11.2805
   -11.2720 -11.2720  -4.7849  -4.7830  -1.6528  -1.6460  -1.1239  -1.0392
    -0.8195  -0.8110   1.3399   1.6035   1.6538   1.9318   5.5553   6.1473
     6.3608   6.9440   7.2938   7.6247   7.8017   7.9498   8.8181

          k =-0.6957 0.4473-0.1507 ( 45896 PWs)   bands (ev):

   -49.0888 -49.0888 -49.0885 -49.0885 -48.7206 -48.7206 -21.0289 -21.0283
   -21.0280 -21.0276 -21.0138 -21.0137 -21.0031 -21.0029 -21.0013 -21.0009
   -21.0008 -21.0002 -20.6582 -20.6582 -20.6548 -20.6545 -20.6494 -20.6491
   -11.4061 -11.4060 -11.3970 -11.3968 -11.2871 -11.2870 -11.2807 -11.2805
   -11.2720 -11.2720  -4.7972  -4.7962  -1.6064  -1.5758  -1.0607  -0.9776
    -0.8029  -0.7814   0.9614   1.0090   2.0346   2.0434   5.9521   6.1224
     6.3656   6.5142   7.5343   8.0373   8.3119   8.5073   8.6454

          k =-0.6974-0.6710-0.4645 ( 45888 PWs)   bands (ev):

   -49.0887 -49.0887 -49.0886 -49.0886 -48.7206 -48.7206 -21.0299 -21.0299
   -21.0278 -21.0278 -21.0092 -21.0092 -21.0068 -21.0068 -21.0009 -21.0009
   -21.0002 -21.0002 -20.6581 -20.6581 -20.6545 -20.6545 -20.6494 -20.6494
   -11.4060 -11.4060 -11.3968 -11.3968 -11.2870 -11.2870 -11.2807 -11.2807
   -11.2719 -11.2719  -4.7407  -4.7407  -1.4077  -1.4077  -1.2461  -1.2461
    -1.0810  -1.0810   1.4114   1.4114   1.8405   1.8405   6.2720   6.2720
     6.5237   6.5237   7.4141   7.4141   8.3259   8.3259   8.9198

          k =-0.6957-0.6710-0.1507 ( 45914 PWs)   bands (ev):

   -49.0888 -49.0888 -49.0885 -49.0885 -48.7206 -48.7206 -21.0294 -21.0294
   -21.0283 -21.0283 -21.0140 -21.0140 -21.0026 -21.0026 -21.0004 -21.0004
   -21.0001 -21.0001 -20.6582 -20.6582 -20.6546 -20.6546 -20.6492 -20.6492
   -11.4061 -11.4061 -11.3968 -11.3968 -11.2871 -11.2871 -11.2806 -11.2806
   -11.2719 -11.2719  -4.7513  -4.7513  -1.5943  -1.5943  -0.9956  -0.9956
    -0.9079  -0.9079   0.8255   0.8255   2.0763   2.0763   6.0627   6.0627
     6.9970   6.9970   7.8877   7.8877   8.3970   8.3974   8.6644

     the Fermi energy is     3.1078 ev

!    total energy              =   -1142.00018105 Ry
     estimated scf accuracy    <          1.1E-10 Ry
     smearing contrib. (-TS)   =      -0.00000000 Ry
     internal energy E=F+TS    =   -1142.00018105 Ry

     The total energy is F=E-TS. E is the sum of the following terms:
     one-electron contribution =    -715.00404771 Ry
     hartree contribution      =     392.86690447 Ry
     xc contribution           =    -171.36225156 Ry
     ewald contribution        =    -425.22612264 Ry
     one-center paw contrib.   =    -223.27466361 Ry

     convergence has been achieved in  16 iterations

     Forces acting on atoms (cartesian axes, Ry/au):

     atom    1 type  2   force =     0.00000000    0.00000000    0.00000000
     atom    2 type  2   force =     0.00000000    0.00000000    0.00000000
     atom    3 type  3   force =     0.00000000    0.00000000    0.00000000
     atom    4 type  3   force =     0.00000000    0.00000000    0.00000000
     atom    5 type  3   force =     0.00069290   -0.00426208    0.00101110
     atom    6 type  3   force =    -0.00069290    0.00426208   -0.00101110
     atom    7 type  3   force =    -0.00069290   -0.00426208   -0.00101110
     atom    8 type  3   force =     0.00069290    0.00426208    0.00101110
     atom    9 type  1   force =     0.00006938    0.00011864    0.00273558
     atom   10 type  1   force =    -0.00006938   -0.00011864   -0.00273558
     atom   11 type  1   force =    -0.00006938    0.00011864   -0.00273558
     atom   12 type  1   force =     0.00006938   -0.00011864    0.00273558
     atom   13 type  1   force =     0.00431012   -0.00072761   -0.00119205
     atom   14 type  1   force =    -0.00431012    0.00072761    0.00119205
     atom   15 type  1   force =    -0.00431012   -0.00072761    0.00119205
     atom   16 type  1   force =     0.00431012    0.00072761   -0.00119205
     atom   17 type  1   force =    -0.00258949   -0.00181535   -0.00315139
     atom   18 type  1   force =     0.00258949    0.00181535    0.00315139
     atom   19 type  1   force =     0.00258949   -0.00181535    0.00315139
     atom   20 type  1   force =    -0.00258949    0.00181535   -0.00315139

     Total force =     0.016447     Total SCF correction =     0.000001


     Computing stress (Cartesian axis) and pressure

          total   stress  (Ry/bohr**3)                   (kbar)     P=        0.31
   0.00004092   0.00000000   0.00000185            6.02        0.00        0.27
   0.00000000  -0.00002118   0.00000000            0.00       -3.12        0.00
   0.00000185   0.00000000  -0.00001342            0.27        0.00       -1.97

     Energy error            =      4.3E-04 Ry
     Gradient error          =      4.3E-03 Ry/Bohr
     Cell gradient error     =      6.0E+00 kbar

     number of scf cycles    =  50
     number of bfgs steps    =  49

     enthalpy           old  =   -1141.9997463939 Ry
     enthalpy           new  =   -1142.0001810481 Ry

     CASE: enthalpy          _new < enthalpy          _old

     new trust radius        =       0.0325769371 bohr

     The maximum number of steps has been reached.

     End of BFGS Geometry Optimization
     new unit-cell volume =   1601.32912 a.u.^3 (   237.29249 Ang^3 )
     density =      2.02567 g/cm^3

CELL_PARAMETERS (alat= 14.09520260)
   0.722297196   0.000000000  -0.004681104
   0.000000000   0.745801375   0.000000000
  -0.714135671   0.000000000   1.066146605

ATOMIC_POSITIONS (crystal)
Ga            0.5000000000        0.0000000000       -0.0000000000
Ga            0.5000000000        0.5000000000        0.5000000000
Na            0.0000000000        0.0000000000        0.5000000000
Na            0.0000000000        0.5000000000        0.0000000000
Na            0.2444251010        0.9764239911        0.2456583771
Na            0.7555748990        0.0235760089        0.7543416229
Na            0.7555748990        0.4764239911        0.2543416229
Na            0.2444251010        0.5235760089        0.7456583771
H             0.3910260399        0.7784560945        0.5474368904
H             0.6089739601        0.2215439055        0.4525631096
H             0.6089739601        0.2784560945        0.9525631096
H             0.3910260399        0.7215439055        0.0474368904
H             0.7434944897        0.8406359343        0.9654417967
H             0.2565055103        0.1593640657        0.0345582033
H             0.2565055103        0.3406359343        0.5345582033
H             0.7434944897        0.6593640657        0.4654417967
H             0.2033060919        0.9608364352        0.7805636487
H             0.7966939081        0.0391635648        0.2194363513
H             0.7966939081        0.4608364352        0.7194363513
H             0.2033060919        0.5391635648        0.2805636487



     Writing config-only to output data dir ./na3gah6.save/
     NEW-OLD atomic charge density approx. for the potential
     extrapolated charge   92.35683, renormalised to   92.00000

     Writing all to output data dir ./na3gah6.save/
 
     init_run     :      2.32s CPU      2.53s WALL (       1 calls)
     electrons    :   5949.53s CPU   6030.06s WALL (      50 calls)
     update_pot   :     18.82s CPU     19.08s WALL (      50 calls)
     forces       :     22.28s CPU     22.75s WALL (      50 calls)
     stress       :     59.64s CPU     60.37s WALL (      50 calls)

     Called by init_run:
     wfcinit      :      1.26s CPU      1.31s WALL (       1 calls)
     potinit      :      0.16s CPU      0.18s WALL (       1 calls)
     hinit0       :      0.20s CPU      0.23s WALL (       1 calls)

     Called by electrons:
     c_bands      :   5049.61s CPU   5104.82s WALL (    1309 calls)
     sum_band     :    784.85s CPU    799.70s WALL (    1309 calls)
     v_of_rho     :     28.09s CPU     28.40s WALL (    1360 calls)
     newd         :     25.87s CPU     32.80s WALL (    1360 calls)
     PAW_pot      :     50.97s CPU     51.41s WALL (    1410 calls)
     mix_rho      :      7.37s CPU      7.52s WALL (    1309 calls)

     Called by c_bands:
     init_us_2    :     39.41s CPU     41.40s WALL (   55380 calls)
     init_us_2:cp :     39.09s CPU     41.21s WALL (   55380 calls)
     cegterg      :   4786.87s CPU   4831.78s WALL (   26347 calls)

     Called by *egterg:
     cdiaghg      :    390.40s CPU    392.95s WALL (  132055 calls)
     h_psi        :   3923.90s CPU   3961.88s WALL (  133203 calls)
     s_psi        :     67.73s CPU     68.60s WALL (  133203 calls)
     g_psi        :      6.51s CPU      6.59s WALL (  106836 calls)

     Called by h_psi:
     h_psi:calbec :    128.88s CPU    130.21s WALL (  133203 calls)
     vloc_psi     :   3696.71s CPU   3732.54s WALL (  133203 calls)
     add_vuspsi   :     84.61s CPU     85.46s WALL (  133203 calls)

     General routines
     calbec       :    172.05s CPU    173.91s WALL (  165383 calls)
     fft          :     26.83s CPU     27.12s WALL (   18880 calls)
     ffts         :      2.94s CPU      2.98s WALL (    2669 calls)
     fftw         :   4220.40s CPU   4261.12s WALL ( 9474938 calls)
     interpolate  :      3.74s CPU      3.77s WALL (    1360 calls)
     davcio       :      0.00s CPU      0.02s WALL (      20 calls)
 
     Parallel routines
 
     PWSCF        :      1h41m CPU      1h42m WALL

 
   This run was terminated on:  14:11:14   1Dec2023            

=------------------------------------------------------------------------------=
   JOB DONE.
=------------------------------------------------------------------------------=
Job execution finished at: Fri Dec  1 14:11:15 IST 2023
