==========================================
SLURM_CLUSTER_NAME = paramganga
SLURM_ARRAY_JOB_ID = 
SLURM_ARRAY_TASK_ID = 
SLURM_ARRAY_TASK_COUNT = 
SLURM_ARRAY_TASK_MAX = 
SLURM_ARRAY_TASK_MIN = 
SLURM_JOB_ACCOUNT = iitr
SLURM_JOB_ID = 168272
SLURM_JOB_NAME = 19280
SLURM_JOB_NODELIST = cn[202-204]
SLURM_JOB_USER = garima.iitr
SLURM_JOB_UID = 38339
SLURM_JOB_PARTITION = small
SLURM_TASK_PID = 4053
SLURM_SUBMIT_DIR = /home/garima.iitr/.cache/.es/compmat/na5alh14
SLURM_CPUS_ON_NODE = 48
SLURM_NTASKS = 144
SLURM_TASK_PID = 4053
==========================================
cn202
 
:: initializing oneAPI environment ...
   slurm_script: BASH_VERSION = 4.2.46(2)-release
   args: Using "$@" for setvars.sh arguments: 
:: advisor -- latest
:: ccl -- latest
:: clck -- latest
:: compiler -- latest
:: dal -- latest
:: debugger -- latest
:: dev-utilities -- latest
:: dnnl -- latest
:: dpcpp-ct -- latest
:: dpl -- latest
:: inspector -- latest
:: intelpython -- latest
:: ipp -- latest
:: ippcp -- latest
:: ipp -- latest
:: itac -- latest
:: mkl -- latest
:: mpi -- latest
:: tbb -- latest
:: vpl -- latest
:: vtune -- latest
:: oneAPI environment initialized ::
 
Job execution start: Tue Oct 31 20:00:11 IST 2023
Job submitted by garima.iitr
The job ID is:168272

     Program PWSCF v.7.1 starts on 31Oct2023 at 20: 0:15 

     This program is part of the open-source Quantum ESPRESSO suite
     for quantum simulation of materials; please cite
         "P. Giannozzi et al., J. Phys.:Condens. Matter 21 395502 (2009);
         "P. Giannozzi et al., J. Phys.:Condens. Matter 29 465901 (2017);
         "P. Giannozzi et al., J. Chem. Phys. 152 154105 (2020);
          URL http://www.quantum-espresso.org", 
     in publications or presentations arising from this work. More details at
     http://www.quantum-espresso.org/quote

     Parallel version (MPI & OpenMP), running on     144 processor cores
     Number of MPI processes:               144
     Threads/MPI process:                     1

     MPI processes distributed on     3 nodes
     168871 MiB available memory on the printing compute node when the environment starts
 
     Reading input from na5alh14.in

     Current dimensions of program PWSCF are:
     Max number of different atomic species (ntypx) = 10
     Max number of k-points (npk) =  40000
     Max angular momentum in pseudopotentials (lmaxx) =  4
     file Al.pbe-n-kjpaw_psl.1.0.0.UPF: wavefunction(s)  3S 3P renormalized

     IMPORTANT: XC functional enforced from input :
     Exchange-correlation= PBE
                           (   1   4   3   4   0   0   0)
     Any further DFT definition will be discarded
     Please, verify this is what you really want

     Message from routine setup:
     using ibrav=0 with symmetry is DISCOURAGED, use correct ibrav instead
 
     K-points division:     npool     =       3
     R & G space division:  proc/nbgrp/npool/nimage =      48
     Subspace diagonalization in iterative solution of the eigenvalue problem:
     a serial algorithm will be used

 
     Parallelization info
     --------------------
     sticks:   dense  smooth     PW     G-vecs:    dense   smooth      PW
     Min          98      79     21                 7828     5605     795
     Max          99      80     22                 7839     5611     802
     Sum        4725    3793   1041               375859   269139   38367
 
     Using Slab Decomposition
 


     bravais-lattice index     =            0
     lattice parameter (alat)  =      12.6114  a.u.
     unit-cell volume          =    3067.3055 (a.u.)^3
     number of atoms/cell      =           44
     number of atomic types    =            3
     number of electrons       =       136.00
     number of Kohn-Sham states=           82
     kinetic-energy cutoff     =      75.0000  Ry
     charge density cutoff     =     375.0000  Ry
     scf convergence threshold =      1.0E-08
     mixing beta               =       0.7000
     number of iterations used =            8  plain     mixing
     energy convergence thresh.=      1.0E-04
     force convergence thresh. =      1.0E-03
     press convergence thresh. =      5.0E-01
     Exchange-correlation= PBE
                           (   1   4   3   4   0   0   0)
     nstep                     =           50


     celldm(1)=  12.611352  celldm(2)=   0.000000  celldm(3)=   0.000000
     celldm(4)=   0.000000  celldm(5)=   0.000000  celldm(6)=   0.000000

     crystal axes: (cart. coord. in units of alat)
               a(1) = (   1.000000   0.000000   0.000000 )  
               a(2) = (   0.000000   1.000000   0.000000 )  
               a(3) = (   0.000000   0.000000   1.529227 )  

     reciprocal axes: (cart. coord. in units 2 pi/alat)
               b(1) = (  1.000000  0.000000  0.000000 )  
               b(2) = (  0.000000  1.000000  0.000000 )  
               b(3) = (  0.000000  0.000000  0.653925 )  


     PseudoPot. # 1 for Al read from file:
     /home/garima.iitr/.cache/.es/compmat/na5alh14/Al.pbe-n-kjpaw_psl.1.0.0.UPF
     MD5 check sum: 502b6b27b9c6270cab5dd1084b96fa6d
     Pseudo is Projector augmented-wave + core cor, Zval =  3.0
     Generated using &quot;atomic&quot; code by A. Dal Corso  v.6.3
     Shape of augmentation charge: PSQ
     Using radial grid of 1135 points,  6 beta functions with: 
                l(1) =   0
                l(2) =   0
                l(3) =   1
                l(4) =   1
                l(5) =   2
                l(6) =   2
     Q(r) pseudized with 0 coefficients 


     PseudoPot. # 2 for Na read from file:
     /home/garima.iitr/.cache/.es/compmat/na5alh14/na_pbe_v1.5.uspp.F.UPF
     MD5 check sum: 44600605ef58000f06b90626533354dc
     Pseudo is Ultrasoft, Zval =  9.0
     Generated by new atomic code, or converted to UPF format
     Using radial grid of  819 points,  5 beta functions with: 
                l(1) =   0
                l(2) =   0
                l(3) =   1
                l(4) =   1
                l(5) =   2
     Q(r) pseudized with  8 coefficients,  rinner =    1.250   1.250   1.250
                                                       1.250   1.250

     PseudoPot. # 3 for H  read from file:
     /home/garima.iitr/.cache/.es/compmat/na5alh14/H.pbe-rrkjus_psl.1.0.0.UPF
     MD5 check sum: 3f4114867bd07edc7f1424d066fc1888
     Pseudo is Ultrasoft, Zval =  1.0
     Generated using &quot;atomic&quot; code by A. Dal Corso  v.6.3MaX
     Using radial grid of  929 points,  2 beta functions with: 
                l(1) =   0
                l(2) =   0
     Q(r) pseudized with 0 coefficients 


     atomic species   valence    mass     pseudopotential
        Al             3.00    26.98100     Al( 1.00)
        Na             9.00    22.98900     Na( 1.00)
        H              1.00     1.00750     H ( 1.00)

     16 Sym. Ops., with inversion, found ( 8 have fractional translation)



   Cartesian axes

     site n.     atom                  positions (alat units)
         1           Al  tau(   1) = (   0.0000000   0.0000000   0.7646137  )
         2           Al  tau(   2) = (   0.5000000   0.5000000   0.0000000  )
         3           Al  tau(   3) = (   0.0000000   0.5000000   0.0000000  )
         4           Al  tau(   4) = (   0.5000000   0.0000000   0.7646137  )
         5           Al  tau(   5) = (   0.0000000   0.5000000   0.7646137  )
         6           Al  tau(   6) = (   0.5000000   0.0000000   0.0000000  )
         7           Na  tau(   7) = (   0.0000000   0.0000000   0.0000000  )
         8           Na  tau(   8) = (   0.5000000   0.5000000   0.7646137  )
         9           Na  tau(   9) = (   0.7867927   0.2867927   0.3823069  )
        10           Na  tau(  10) = (   0.7132073   0.7867927   0.3823069  )
        11           Na  tau(  11) = (   0.2132073   0.7132073   0.3823069  )
        12           Na  tau(  12) = (   0.7132073   0.7867927   1.1469206  )
        13           Na  tau(  13) = (   0.2132073   0.7132073   1.1469206  )
        14           Na  tau(  14) = (   0.2867927   0.2132073   0.3823069  )
        15           Na  tau(  15) = (   0.2867927   0.2132073   1.1469206  )
        16           Na  tau(  16) = (   0.7867927   0.2867927   1.1469206  )
        17           H   tau(  17) = (   0.0448119   0.3192088   0.1810874  )
        18           H   tau(  18) = (   0.4551881   0.8192088   0.5835264  )
        19           H   tau(  19) = (   0.1807912   0.4551881   0.5835264  )
        20           H   tau(  20) = (   0.4551881   0.8192088   0.9457011  )
        21           H   tau(  21) = (   0.1807912   0.4551881   0.9457011  )
        22           H   tau(  22) = (   0.9551881   0.6807912   0.1810874  )
        23           H   tau(  23) = (   0.3192088   0.9551881   0.1810874  )
        24           H   tau(  24) = (   0.9551881   0.6807912   1.3481401  )
        25           H   tau(  25) = (   0.3192088   0.9551881   1.3481401  )
        26           H   tau(  26) = (   0.6807912   0.0448119   0.1810874  )
        27           H   tau(  27) = (   0.0448119   0.3192088   1.3481401  )
        28           H   tau(  28) = (   0.6807912   0.0448119   1.3481401  )
        29           H   tau(  29) = (   0.5448119   0.1807912   0.5835264  )
        30           H   tau(  30) = (   0.8192088   0.5448119   0.5835264  )
        31           H   tau(  31) = (   0.5448119   0.1807912   0.9457011  )
        32           H   tau(  32) = (   0.8192088   0.5448119   0.9457011  )
        33           H   tau(  33) = (   0.0000000   0.0000000   0.5023746  )
        34           H   tau(  34) = (   0.5000000   0.5000000   0.2622391  )
        35           H   tau(  35) = (   0.5000000   0.5000000   1.2669884  )
        36           H   tau(  36) = (   0.0000000   0.0000000   1.0268529  )
        37           H   tau(  37) = (   0.2520913   0.5781773   0.0000000  )
        38           H   tau(  38) = (   0.2479087   0.0781773   0.7646137  )
        39           H   tau(  39) = (   0.9218227   0.2479087   0.7646137  )
        40           H   tau(  40) = (   0.7479087   0.4218227   0.0000000  )
        41           H   tau(  41) = (   0.5781773   0.7479087   0.0000000  )
        42           H   tau(  42) = (   0.4218227   0.2520913   0.0000000  )
        43           H   tau(  43) = (   0.7520913   0.9218227   0.7646137  )
        44           H   tau(  44) = (   0.0781773   0.7520913   0.7646137  )

     number of k points=    30  Marzari-Vanderbilt smearing, width (Ry)=  0.0050
                       cart. coord. in units 2pi/alat
        k(    1) = (   0.0000000   0.0000000   0.0000000), wk =   0.0138889
        k(    2) = (   0.0000000   0.0000000   0.1634812), wk =   0.0277778
        k(    3) = (   0.0000000   0.0000000  -0.3269625), wk =   0.0138889
        k(    4) = (   0.0000000   0.1666667   0.0000000), wk =   0.0555556
        k(    5) = (   0.0000000   0.1666667   0.1634812), wk =   0.1111111
        k(    6) = (   0.0000000   0.1666667  -0.3269625), wk =   0.0555556
        k(    7) = (   0.0000000   0.3333333   0.0000000), wk =   0.0555556
        k(    8) = (   0.0000000   0.3333333   0.1634812), wk =   0.1111111
        k(    9) = (   0.0000000   0.3333333  -0.3269625), wk =   0.0555556
        k(   10) = (   0.0000000  -0.5000000   0.0000000), wk =   0.0277778
        k(   11) = (   0.0000000  -0.5000000   0.1634812), wk =   0.0555556
        k(   12) = (   0.0000000  -0.5000000  -0.3269625), wk =   0.0277778
        k(   13) = (   0.1666667   0.1666667   0.0000000), wk =   0.0555556
        k(   14) = (   0.1666667   0.1666667   0.1634812), wk =   0.1111111
        k(   15) = (   0.1666667   0.1666667  -0.3269625), wk =   0.0555556
        k(   16) = (   0.1666667   0.3333333   0.0000000), wk =   0.1111111
        k(   17) = (   0.1666667   0.3333333   0.1634812), wk =   0.2222222
        k(   18) = (   0.1666667   0.3333333  -0.3269625), wk =   0.1111111
        k(   19) = (   0.1666667  -0.5000000   0.0000000), wk =   0.0555556
        k(   20) = (   0.1666667  -0.5000000   0.1634812), wk =   0.1111111
        k(   21) = (   0.1666667  -0.5000000  -0.3269625), wk =   0.0555556
        k(   22) = (   0.3333333   0.3333333   0.0000000), wk =   0.0555556
        k(   23) = (   0.3333333   0.3333333   0.1634812), wk =   0.1111111
        k(   24) = (   0.3333333   0.3333333  -0.3269625), wk =   0.0555556
        k(   25) = (   0.3333333  -0.5000000   0.0000000), wk =   0.0555556
        k(   26) = (   0.3333333  -0.5000000   0.1634812), wk =   0.1111111
        k(   27) = (   0.3333333  -0.5000000  -0.3269625), wk =   0.0555556
        k(   28) = (  -0.5000000  -0.5000000   0.0000000), wk =   0.0138889
        k(   29) = (  -0.5000000  -0.5000000   0.1634812), wk =   0.0277778
        k(   30) = (  -0.5000000  -0.5000000  -0.3269625), wk =   0.0138889

     Dense  grid:   375859 G-vectors     FFT dimensions: (  80,  80, 120)

     Smooth grid:   269139 G-vectors     FFT dimensions: (  72,  72, 108)

     Estimated max dynamical RAM per process >      37.98 MB

     Estimated total dynamical RAM >       5.16 GB

     Initial potential from superposition of free atoms

     starting charge     135.9231, renormalised to     136.0000
     Starting wfcs are  102 randomized atomic wfcs
     Checking if some PAW data can be deallocated... 

     total cpu time spent up to now is        1.7 secs

     Self-consistent Calculation

     iteration #  1     ecut=    75.00 Ry     beta= 0.70
     Davidson diagonalization with overlap
     ethr =  1.00E-02,  avg # of iterations =  5.5

     total cpu time spent up to now is        4.0 secs

     total energy              =   -1223.45808571 Ry
     estimated scf accuracy    <       1.93451106 Ry

     iteration #  2     ecut=    75.00 Ry     beta= 0.70
     Davidson diagonalization with overlap
     ethr =  1.42E-03,  avg # of iterations =  2.2

     total cpu time spent up to now is        5.8 secs

     total energy              =   -1223.62743831 Ry
     estimated scf accuracy    <       0.03953117 Ry

     iteration #  3     ecut=    75.00 Ry     beta= 0.70
     Davidson diagonalization with overlap
     ethr =  2.91E-05,  avg # of iterations = 11.6

     total cpu time spent up to now is        9.7 secs

     total energy              =   -1223.63958820 Ry
     estimated scf accuracy    <       0.00368590 Ry

     iteration #  4     ecut=    75.00 Ry     beta= 0.70
     Davidson diagonalization with overlap
     ethr =  2.71E-06,  avg # of iterations =  4.6

     total cpu time spent up to now is       11.9 secs

     total energy              =   -1223.64050757 Ry
     estimated scf accuracy    <       0.00027742 Ry

     iteration #  5     ecut=    75.00 Ry     beta= 0.70
     Davidson diagonalization with overlap
     ethr =  2.04E-07,  avg # of iterations =  2.6

     total cpu time spent up to now is       13.7 secs

     total energy              =   -1223.64056751 Ry
     estimated scf accuracy    <       0.00002040 Ry

     iteration #  6     ecut=    75.00 Ry     beta= 0.70
     Davidson diagonalization with overlap
     ethr =  1.50E-08,  avg # of iterations =  3.5

     total cpu time spent up to now is       15.7 secs

     total energy              =   -1223.64057106 Ry
     estimated scf accuracy    <       0.00000325 Ry

     iteration #  7     ecut=    75.00 Ry     beta= 0.70
     Davidson diagonalization with overlap
     ethr =  2.39E-09,  avg # of iterations =  2.1

     total cpu time spent up to now is       17.4 secs

     total energy              =   -1223.64057145 Ry
     estimated scf accuracy    <       0.00000010 Ry

     iteration #  8     ecut=    75.00 Ry     beta= 0.70
     Davidson diagonalization with overlap
     ethr =  7.37E-11,  avg # of iterations =  4.0

     total cpu time spent up to now is       19.6 secs

     total energy              =   -1223.64057149 Ry
     estimated scf accuracy    <       0.00000004 Ry

     iteration #  9     ecut=    75.00 Ry     beta= 0.70
     Davidson diagonalization with overlap
     ethr =  3.18E-11,  avg # of iterations =  2.0

     total cpu time spent up to now is       21.2 secs

     End of self-consistent calculation

          k = 0.0000 0.0000 0.0000 ( 33673 PWs)   bands (ev):

   -49.1965 -49.1965 -48.8797 -48.8797 -48.8769 -48.8769 -48.8769 -48.8769
   -48.8743 -48.8743 -21.1434 -21.1409 -21.1079 -21.1079 -21.1065 -21.1065
   -20.8535 -20.8522 -20.8392 -20.8392 -20.8391 -20.8391 -20.8391 -20.8388
   -20.8058 -20.8041 -20.8036 -20.8026 -20.8005 -20.8005 -20.8005 -20.8005
   -20.7810 -20.7810 -20.7807 -20.7807 -20.7793 -20.7789 -20.7775 -20.7774
    -6.0997  -5.7866  -4.0681  -3.8139  -2.7400  -2.6202  -2.5931  -2.5096
    -2.5096  -2.3315  -2.3315  -1.1070  -1.0020  -0.8097  -0.8097  -0.7275
    -0.6233  -0.6233  -0.2349  -0.0916   0.3042   0.6939   0.6939   0.8766
     1.1272   1.3763   1.3763   1.6223   4.4850   5.3332   6.3492   6.3492
     6.4030   6.5118   6.5758   7.0446   7.0446   7.0745   7.1798   7.2181
     7.2181   7.5833

          k = 0.0000 0.0000 0.1635 ( 33689 PWs)   bands (ev):

   -49.1965 -49.1965 -48.8797 -48.8797 -48.8769 -48.8769 -48.8769 -48.8769
   -48.8743 -48.8743 -21.1430 -21.1412 -21.1077 -21.1077 -21.1067 -21.1067
   -20.8533 -20.8524 -20.8392 -20.8392 -20.8391 -20.8391 -20.8391 -20.8389
   -20.8053 -20.8040 -20.8037 -20.8031 -20.8005 -20.8005 -20.8005 -20.8005
   -20.7809 -20.7809 -20.7808 -20.7808 -20.7792 -20.7789 -20.7775 -20.7774
    -6.0597  -5.8396  -4.0355  -3.8566  -2.7712  -2.6366  -2.4848  -2.4848
    -2.3903  -2.3588  -2.3588  -1.3629  -0.8832  -0.7918  -0.7918  -0.7370
    -0.6636  -0.6636  -0.3309  -0.2517   0.6381   0.8077   0.8077   0.9367
     1.1037   1.2871   1.2871   1.5052   4.6061   5.3241   6.2736   6.2897
     6.2897   6.5391   6.5764   6.6382   6.6382   6.9885   7.3348   7.7402
     7.7449   7.7449

          k = 0.0000 0.0000-0.3270 ( 33734 PWs)   bands (ev):

   -49.1965 -49.1965 -48.8797 -48.8797 -48.8769 -48.8769 -48.8769 -48.8769
   -48.8743 -48.8743 -21.1421 -21.1421 -21.1072 -21.1072 -21.1072 -21.1072
   -20.8529 -20.8529 -20.8392 -20.8392 -20.8392 -20.8392 -20.8390 -20.8390
   -20.8042 -20.8042 -20.8039 -20.8039 -20.8005 -20.8005 -20.8005 -20.8005
   -20.7809 -20.7809 -20.7809 -20.7809 -20.7791 -20.7791 -20.7774 -20.7774
    -5.9560  -5.9560  -3.9511  -3.9511  -2.7229  -2.7229  -2.4231  -2.4231
    -2.4231  -2.4231  -1.9160  -1.9160  -0.7380  -0.7380  -0.7380  -0.7380
    -0.5850  -0.5850  -0.5491  -0.5491   1.0354   1.0354   1.0588   1.0588
     1.0588   1.0588   1.1494   1.1494   4.9726   4.9726   6.3423   6.3423
     6.3423   6.3423   6.4367   6.4367   6.7903   6.7903   7.3580   7.3580
     8.1069   8.1069

          k = 0.0000 0.1667 0.0000 ( 33695 PWs)   bands (ev):

   -49.1965 -49.1965 -48.8795 -48.8795 -48.8771 -48.8771 -48.8767 -48.8767
   -48.8745 -48.8745 -21.1432 -21.1410 -21.1078 -21.1078 -21.1067 -21.1066
   -20.8519 -20.8507 -20.8400 -20.8399 -20.8385 -20.8384 -20.8339 -20.8338
   -20.8055 -20.8051 -20.8050 -20.8020 -20.8016 -20.8014 -20.7998 -20.7998
   -20.7844 -20.7843 -20.7810 -20.7808 -20.7807 -20.7806 -20.7782 -20.7780
    -6.0281  -5.7265  -4.2490  -3.9900  -3.0895  -2.9628  -2.5486  -2.4621
    -2.3058  -1.8526  -1.7135  -1.2144  -1.0190  -0.9175  -0.8689  -0.7333
    -0.7156  -0.7026  -0.3040  -0.1488   0.3924   0.7377   0.8116   0.8724
     1.1122   1.3659   1.3739   1.5575   4.7016   5.5108   6.3053   6.3324
     6.3351   6.3616   6.7617   6.7649   6.9464   7.0562   7.1792   7.2227
     7.3016   7.6113

          k = 0.0000 0.1667 0.1635 ( 33667 PWs)   bands (ev):

   -49.1965 -49.1965 -48.8795 -48.8795 -48.8771 -48.8771 -48.8767 -48.8767
   -48.8745 -48.8745 -21.1429 -21.1413 -21.1076 -21.1076 -21.1068 -21.1068
   -20.8517 -20.8509 -20.8400 -20.8399 -20.8385 -20.8384 -20.8339 -20.8338
   -20.8054 -20.8051 -20.8046 -20.8025 -20.8015 -20.8014 -20.7998 -20.7998
   -20.7843 -20.7843 -20.7810 -20.7808 -20.7807 -20.7806 -20.7781 -20.7781
    -5.9893  -5.7770  -4.2165  -4.0342  -3.0889  -2.9920  -2.4398  -2.3630
    -2.3287  -1.8286  -1.7468  -1.3662  -1.0116  -0.9065  -0.8329  -0.7975
    -0.7616  -0.6648  -0.3493  -0.3048   0.6270   0.8262   0.9336   0.9381
     1.0943   1.2155   1.2908   1.5375   4.8127   5.4963   6.1533   6.2457
     6.3025   6.4239   6.7030   6.7092   6.7957   6.8583   7.2607   7.2924
     7.5136   7.9019

          k = 0.0000 0.1667-0.3270 ( 33654 PWs)   bands (ev):

   -49.1965 -49.1965 -48.8795 -48.8795 -48.8771 -48.8771 -48.8767 -48.8767
   -48.8745 -48.8745 -21.1421 -21.1421 -21.1072 -21.1072 -21.1072 -21.1072
   -20.8513 -20.8513 -20.8400 -20.8400 -20.8384 -20.8384 -20.8338 -20.8338
   -20.8053 -20.8053 -20.8035 -20.8035 -20.8015 -20.8015 -20.7998 -20.7998
   -20.7843 -20.7843 -20.7809 -20.7809 -20.7806 -20.7806 -20.7781 -20.7781
    -5.8889  -5.8889  -4.1311  -4.1311  -3.0520  -3.0520  -2.3850  -2.3850
    -1.9393  -1.9393  -1.7433  -1.7433  -0.8971  -0.8971  -0.8373  -0.8373
    -0.6502  -0.6502  -0.4748  -0.4748   0.9257   0.9257   1.0023   1.0023
     1.0773   1.0773   1.3201   1.3201   5.1449   5.1449   6.2084   6.2084
     6.4018   6.4018   6.5507   6.5507   6.8200   6.8200   7.2329   7.2329
     7.9113   7.9113

          k = 0.0000 0.3333 0.0000 ( 33637 PWs)   bands (ev):

   -49.1965 -49.1965 -48.8790 -48.8790 -48.8776 -48.8776 -48.8762 -48.8762
   -48.8750 -48.8749 -21.1427 -21.1415 -21.1076 -21.1075 -21.1069 -21.1069
   -20.8487 -20.8479 -20.8422 -20.8420 -20.8311 -20.8309 -20.8244 -20.8243
   -20.8104 -20.8101 -20.8053 -20.8050 -20.8027 -20.8004 -20.7976 -20.7975
   -20.7920 -20.7916 -20.7871 -20.7870 -20.7802 -20.7800 -20.7787 -20.7786
    -5.8282  -5.5861  -4.6299  -4.4091  -3.1909  -3.1158  -2.3484  -2.3390
    -2.2452  -1.5996  -1.2679  -1.1467  -1.1264  -0.9354  -0.8957  -0.7129
    -0.6212  -0.6209  -0.4816  -0.2914   0.4237   0.6959   0.8419   0.9570
     1.0649   1.3555   1.3717   1.3823   5.2377   5.9079   6.0275   6.1990
     6.2649   6.3518   6.6052   6.7031   6.7450   7.2494   7.3145   7.4452
     7.6512   7.7132

          k = 0.0000 0.3333 0.1635 ( 33632 PWs)   bands (ev):

   -49.1965 -49.1965 -48.8790 -48.8790 -48.8776 -48.8776 -48.8762 -48.8762
   -48.8750 -48.8749 -21.1426 -21.1417 -21.1075 -21.1074 -21.1070 -21.1070
   -20.8486 -20.8480 -20.8422 -20.8421 -20.8311 -20.8309 -20.8244 -20.8243
   -20.8104 -20.8101 -20.8052 -20.8050 -20.8023 -20.8007 -20.7976 -20.7975
   -20.7919 -20.7916 -20.7871 -20.7870 -20.7801 -20.7801 -20.7787 -20.7786
    -5.7948  -5.6233  -4.6084  -4.4518  -3.1881  -3.1318  -2.3328  -2.2607
    -2.1701  -1.5413  -1.2534  -1.1680  -1.1291  -1.1229  -0.9357  -0.8057
    -0.6535  -0.5282  -0.4643  -0.3755   0.5341   0.7257   0.8850   0.9502
     1.1251   1.1318   1.3538   1.5398   5.3372   5.9071   6.0893   6.1542
     6.2675   6.3575   6.3632   6.5273   6.9793   7.1586   7.4029   7.4300
     7.7157   7.9625

          k = 0.0000 0.3333-0.3270 ( 33628 PWs)   bands (ev):

   -49.1965 -49.1965 -48.8790 -48.8790 -48.8776 -48.8776 -48.8762 -48.8762
   -48.8750 -48.8750 -21.1421 -21.1421 -21.1073 -21.1073 -21.1072 -21.1072
   -20.8483 -20.8483 -20.8421 -20.8421 -20.8310 -20.8310 -20.8243 -20.8243
   -20.8102 -20.8102 -20.8051 -20.8051 -20.8015 -20.8015 -20.7975 -20.7975
   -20.7917 -20.7917 -20.7870 -20.7870 -20.7801 -20.7801 -20.7786 -20.7786
    -5.7110  -5.7110  -4.5404  -4.5404  -3.1656  -3.1656  -2.2957  -2.2957
    -1.7759  -1.7759  -1.2222  -1.2222  -1.1283  -1.1283  -0.9783  -0.9783
    -0.6250  -0.6250  -0.3820  -0.3820   0.6834   0.6834   0.9172   0.9172
     1.0893   1.0893   1.4901   1.4901   5.6090   5.6090   6.0416   6.0416
     6.3876   6.3876   6.6783   6.6783   6.7548   6.7548   7.4912   7.4912
     7.8863   7.8863

          k = 0.0000-0.5000 0.0000 ( 33654 PWs)   bands (ev):

   -49.1965 -49.1965 -48.8783 -48.8783 -48.8783 -48.8783 -48.8756 -48.8756
   -48.8756 -48.8756 -21.1421 -21.1421 -21.1073 -21.1073 -21.1072 -21.1072
   -20.8453 -20.8453 -20.8449 -20.8449 -20.8199 -20.8199 -20.8196 -20.8196
   -20.8134 -20.8134 -20.8132 -20.8132 -20.7987 -20.7987 -20.7973 -20.7973
   -20.7934 -20.7934 -20.7933 -20.7933 -20.7794 -20.7794 -20.7794 -20.7794
    -5.5899  -5.5899  -4.7410  -4.7410  -3.1655  -3.1655  -2.2445  -2.2445
    -2.0091  -2.0091  -1.2679  -1.2679  -1.0456  -1.0456  -0.7003  -0.7003
    -0.4655  -0.4655  -0.1356  -0.1356   0.2193   0.2193   0.9456   0.9456
     1.1798   1.1798   1.3667   1.3667   5.7825   5.7825   6.0109   6.0109
     6.2671   6.2671   6.8048   6.8048   7.2071   7.2071   7.3244   7.3244
     7.7952   7.7953

          k = 0.0000-0.5000 0.1635 ( 33644 PWs)   bands (ev):

   -49.1965 -49.1965 -48.8783 -48.8783 -48.8783 -48.8783 -48.8756 -48.8756
   -48.8756 -48.8756 -21.1421 -21.1421 -21.1073 -21.1073 -21.1072 -21.1072
   -20.8453 -20.8453 -20.8449 -20.8449 -20.8198 -20.8198 -20.8197 -20.8197
   -20.8134 -20.8134 -20.8132 -20.8132 -20.7988 -20.7988 -20.7972 -20.7972
   -20.7935 -20.7935 -20.7932 -20.7932 -20.7794 -20.7794 -20.7793 -20.7793
    -5.5813  -5.5813  -4.7624  -4.7624  -3.1687  -3.1687  -2.2431  -2.2431
    -1.8770  -1.8770  -1.2629  -1.2629  -1.1374  -1.1374  -0.8134  -0.8134
    -0.4980  -0.4980  -0.0265  -0.0265   0.2057   0.2057   0.9245   0.9245
     1.1187   1.1187   1.4731   1.4731   5.8501   5.8501   6.0975   6.0975
     6.2257   6.2257   6.6178   6.6178   7.0400   7.0400   7.5728   7.5728
     7.9927   7.9928

          k = 0.0000-0.5000-0.3270 ( 33572 PWs)   bands (ev):

   -49.1965 -49.1965 -48.8783 -48.8783 -48.8783 -48.8783 -48.8756 -48.8756
   -48.8756 -48.8756 -21.1421 -21.1421 -21.1073 -21.1073 -21.1072 -21.1072
   -20.8453 -20.8453 -20.8449 -20.8449 -20.8198 -20.8198 -20.8197 -20.8197
   -20.8133 -20.8133 -20.8133 -20.8133 -20.7988 -20.7988 -20.7972 -20.7972
   -20.7936 -20.7936 -20.7932 -20.7932 -20.7795 -20.7795 -20.7793 -20.7793
    -5.5724  -5.5724  -4.7839  -4.7839  -3.1713  -3.1713  -2.2414  -2.2414
    -1.6840  -1.6840  -1.2597  -1.2597  -1.2168  -1.2168  -1.0522  -1.0522
    -0.4311  -0.4311   0.0638   0.0638   0.1731   0.1731   0.8831   0.8831
     1.0958   1.0958   1.5537   1.5537   5.9029   5.9029   6.0879   6.0879
     6.2983   6.2983   6.6982   6.6982   6.7568   6.7568   7.8216   7.8218
     7.8895   7.8895

          k = 0.1667 0.1667 0.0000 ( 33661 PWs)   bands (ev):

   -49.1965 -49.1965 -48.8793 -48.8793 -48.8769 -48.8769 -48.8769 -48.8769
   -48.8747 -48.8747 -21.1431 -21.1412 -21.1079 -21.1076 -21.1069 -21.1066
   -20.8499 -20.8488 -20.8394 -20.8393 -20.8361 -20.8361 -20.8322 -20.8320
   -20.8067 -20.8063 -20.8042 -20.8015 -20.8013 -20.8011 -20.8005 -20.8004
   -20.7845 -20.7844 -20.7842 -20.7841 -20.7807 -20.7805 -20.7805 -20.7804
    -5.9559  -5.6639  -4.3384  -4.0677  -3.4401  -3.3372  -2.4779  -2.0371
    -1.9187  -1.6771  -1.5936  -1.1782  -1.1555  -1.1077  -1.0688  -0.7152
    -0.6282  -0.5911  -0.3793  -0.1916   0.4315   0.7697   0.8609   0.8635
     1.0597   1.3076   1.4781   1.4941   4.8606   5.6200   6.1893   6.3093
     6.3508   6.3866   6.7445   6.8152   6.9283   6.9471   7.0178   7.0667
     7.1907   7.8069

          k = 0.1667 0.1667 0.1635 ( 33683 PWs)   bands (ev):

   -49.1965 -49.1965 -48.8793 -48.8793 -48.8769 -48.8769 -48.8769 -48.8769
   -48.8747 -48.8747 -21.1428 -21.1414 -21.1077 -21.1075 -21.1070 -21.1068
   -20.8497 -20.8490 -20.8394 -20.8393 -20.8361 -20.8361 -20.8322 -20.8321
   -20.8066 -20.8063 -20.8038 -20.8020 -20.8012 -20.8011 -20.8005 -20.8004
   -20.7845 -20.7844 -20.7842 -20.7841 -20.7807 -20.7806 -20.7805 -20.7805
    -5.9181  -5.7126  -4.3037  -4.1133  -3.4365  -3.3600  -2.3037  -2.0199
    -1.9351  -1.6631  -1.6120  -1.4184  -1.1017  -1.0484  -0.9906  -0.7864
    -0.6382  -0.6110  -0.3949  -0.3567   0.5809   0.8563   0.8728   0.9809
     1.0401   1.2095   1.4103   1.5077   4.9629   5.5787   6.0672   6.3088
     6.4335   6.5056   6.5219   6.7935   6.9170   6.9273   6.9580   7.1774
     7.3171   7.8925

          k = 0.1667 0.1667-0.3270 ( 33648 PWs)   bands (ev):

   -49.1965 -49.1965 -48.8793 -48.8793 -48.8769 -48.8769 -48.8769 -48.8769
   -48.8747 -48.8747 -21.1421 -21.1421 -21.1072 -21.1072 -21.1072 -21.1072
   -20.8494 -20.8494 -20.8394 -20.8394 -20.8361 -20.8361 -20.8321 -20.8321
   -20.8065 -20.8065 -20.8029 -20.8029 -20.8012 -20.8012 -20.8005 -20.8005
   -20.7844 -20.7844 -20.7841 -20.7841 -20.7806 -20.7806 -20.7805 -20.7805
    -5.8207  -5.8207  -4.2139  -4.2139  -3.4068  -3.4068  -1.9807  -1.9807
    -1.8788  -1.8788  -1.6247  -1.6247  -1.1160  -1.1160  -0.7523  -0.7523
    -0.6225  -0.6225  -0.5230  -0.5230   0.7390   0.7390   0.9862   0.9862
     1.2586   1.2586   1.3184   1.3184   5.2512   5.2512   6.2352   6.2352
     6.4756   6.4756   6.6146   6.6146   6.8989   6.8989   7.0518   7.0518
     7.6525   7.6525

          k = 0.1667 0.3333 0.0000 ( 33641 PWs)   bands (ev):

   -49.1965 -49.1965 -48.8788 -48.8788 -48.8774 -48.8774 -48.8764 -48.8764
   -48.8751 -48.8751 -21.1426 -21.1415 -21.1078 -21.1073 -21.1072 -21.1067
   -20.8460 -20.8453 -20.8396 -20.8394 -20.8304 -20.8302 -20.8240 -20.8238
   -20.8112 -20.8108 -20.8049 -20.8046 -20.8020 -20.7999 -20.7985 -20.7984
   -20.7918 -20.7913 -20.7878 -20.7877 -20.7828 -20.7828 -20.7812 -20.7811
    -5.7537  -5.5143  -4.6274  -4.3919  -3.6312  -3.5741  -2.2708  -1.8737
    -1.7779  -1.5446  -1.5430  -1.3582  -1.0229  -0.9353  -0.7179  -0.6252
    -0.6217  -0.5744  -0.5065  -0.3087   0.4362   0.6763   0.8103   0.8802
     0.9750   1.3124   1.4023   1.5365   5.2449   5.8100   5.9371   6.0638
     6.3479   6.4744   6.5246   6.5295   6.8175   7.2702   7.3342   7.4131
     7.6457   7.6904

          k = 0.1667 0.3333 0.1635 ( 33628 PWs)   bands (ev):

   -49.1965 -49.1965 -48.8788 -48.8788 -48.8774 -48.8774 -48.8764 -48.8764
   -48.8751 -48.8751 -21.1425 -21.1417 -21.1076 -21.1072 -21.1072 -21.1069
   -20.8459 -20.8454 -20.8396 -20.8394 -20.8303 -20.8302 -20.8240 -20.8239
   -20.8111 -20.8108 -20.8049 -20.8047 -20.8017 -20.8002 -20.7985 -20.7984
   -20.7917 -20.7913 -20.7878 -20.7877 -20.7828 -20.7828 -20.7812 -20.7812
    -5.7208  -5.5513  -4.6016  -4.4350  -3.6295  -3.5869  -2.1214  -1.8805
    -1.7819  -1.6173  -1.4401  -1.3385  -1.0685  -0.9333  -0.7678  -0.7430
    -0.6549  -0.5154  -0.4583  -0.4393   0.4905   0.6816   0.7467   0.8341
     1.0982   1.3060   1.4395   1.5349   5.3466   5.7620   6.0483   6.2223
     6.2703   6.3339   6.4414   6.6703   6.9620   7.2212   7.3169   7.4204
     7.5060   7.6714

          k = 0.1667 0.3333-0.3270 ( 33656 PWs)   bands (ev):

   -49.1965 -49.1965 -48.8788 -48.8788 -48.8774 -48.8774 -48.8764 -48.8764
   -48.8751 -48.8751 -21.1421 -21.1421 -21.1073 -21.1072 -21.1072 -21.1072
   -20.8457 -20.8456 -20.8395 -20.8395 -20.8303 -20.8302 -20.8239 -20.8239
   -20.8110 -20.8110 -20.8048 -20.8048 -20.8011 -20.8009 -20.7985 -20.7984
   -20.7915 -20.7915 -20.7878 -20.7877 -20.7828 -20.7828 -20.7812 -20.7812
    -5.6381  -5.6381  -4.5270  -4.5264  -3.6146  -3.6119  -1.9034  -1.8795
    -1.7458  -1.6901  -1.4797  -1.3305  -1.0259  -0.9920  -0.9247  -0.7112
    -0.6830  -0.5601  -0.4435  -0.4254   0.5385   0.5476   0.7751   0.7994
     1.2804   1.2941   1.4566   1.4959   5.5574   5.5781   6.1000   6.2041
     6.3636   6.4578   6.6122   6.7903   6.8341   6.8707   7.3431   7.3767
     7.5859   7.6794

          k = 0.1667-0.5000 0.0000 ( 33614 PWs)   bands (ev):

   -49.1965 -49.1965 -48.8781 -48.8781 -48.8781 -48.8781 -48.8758 -48.8758
   -48.8758 -48.8758 -21.1421 -21.1421 -21.1075 -21.1075 -21.1069 -21.1069
   -20.8424 -20.8424 -20.8420 -20.8420 -20.8200 -20.8200 -20.8197 -20.8197
   -20.8132 -20.8132 -20.8130 -20.8130 -20.7983 -20.7983 -20.7970 -20.7970
   -20.7942 -20.7942 -20.7940 -20.7940 -20.7821 -20.7821 -20.7821 -20.7821
    -5.5102  -5.5102  -4.7212  -4.7212  -3.6272  -3.6272  -1.9457  -1.9457
    -1.8177  -1.8177  -1.5096  -1.5096  -0.8121  -0.8121  -0.6961  -0.6961
    -0.4707  -0.4707  -0.0989  -0.0989   0.1995   0.1995   0.8471   0.8471
     1.0980   1.0980   1.5120   1.5120   5.6419   5.6419   5.8561   5.8561
     6.4315   6.4315   6.6319   6.6319   7.0325   7.0325   7.3278   7.3278
     7.8156   7.8156

          k = 0.1667-0.5000 0.1635 ( 33622 PWs)   bands (ev):

   -49.1965 -49.1965 -48.8781 -48.8781 -48.8781 -48.8781 -48.8758 -48.8758
   -48.8758 -48.8758 -21.1421 -21.1421 -21.1075 -21.1075 -21.1070 -21.1070
   -20.8424 -20.8424 -20.8420 -20.8420 -20.8199 -20.8199 -20.8197 -20.8197
   -20.8132 -20.8132 -20.8130 -20.8130 -20.7983 -20.7983 -20.7970 -20.7970
   -20.7942 -20.7942 -20.7940 -20.7940 -20.7821 -20.7821 -20.7820 -20.7820
    -5.5015  -5.5015  -4.7406  -4.7406  -3.6306  -3.6306  -1.9123  -1.9123
    -1.7443  -1.7443  -1.5035  -1.5035  -0.8882  -0.8882  -0.6949  -0.6949
    -0.5802  -0.5802  -0.0073  -0.0073   0.1836   0.1836   0.7143   0.7143
     1.2200   1.2200   1.5269   1.5269   5.7441   5.7441   5.9766   5.9766
     6.2983   6.2983   6.6410   6.6410   6.9789   6.9789   7.4767   7.4767
     7.8033   7.8034

          k = 0.1667-0.5000-0.3270 ( 33612 PWs)   bands (ev):

   -49.1965 -49.1965 -48.8781 -48.8781 -48.8781 -48.8781 -48.8758 -48.8758
   -48.8758 -48.8758 -21.1421 -21.1421 -21.1073 -21.1073 -21.1072 -21.1072
   -20.8424 -20.8424 -20.8420 -20.8420 -20.8199 -20.8199 -20.8198 -20.8198
   -20.8131 -20.8131 -20.8131 -20.8131 -20.7983 -20.7983 -20.7969 -20.7969
   -20.7943 -20.7943 -20.7939 -20.7939 -20.7822 -20.7822 -20.7820 -20.7820
    -5.4923  -5.4923  -4.7603  -4.7603  -3.6337  -3.6337  -1.9151  -1.9151
    -1.6420  -1.6420  -1.3245  -1.3245  -1.2118  -1.2118  -0.7495  -0.7495
    -0.5027  -0.5027   0.0714   0.0714   0.1387   0.1387   0.6144   0.6144
     1.2953   1.2953   1.5480   1.5480   5.9171   5.9171   5.9723   5.9723
     6.3280   6.3280   6.6193   6.6193   6.8934   6.8934   7.5508   7.5509
     7.7745   7.7746

          k = 0.3333 0.3333 0.0000 ( 33684 PWs)   bands (ev):

   -49.1965 -49.1965 -48.8783 -48.8783 -48.8769 -48.8769 -48.8769 -48.8769
   -48.8756 -48.8756 -21.1424 -21.1418 -21.1079 -21.1075 -21.1070 -21.1066
   -20.8402 -20.8395 -20.8342 -20.8338 -20.8289 -20.8288 -20.8200 -20.8199
   -20.8145 -20.8141 -20.8044 -20.8041 -20.8016 -20.8011 -20.7992 -20.7980
   -20.7930 -20.7922 -20.7904 -20.7901 -20.7882 -20.7878 -20.7860 -20.7858
    -5.5421  -5.3253  -4.6877  -4.3966  -4.1406  -4.1008  -2.0721  -1.9155
    -1.8898  -1.4424  -1.3028  -1.0605  -0.9083  -0.8194  -0.6357  -0.5672
    -0.5547  -0.4129  -0.3614  -0.3527   0.4154   0.6667   0.6713   0.7506
     0.7535   1.0984   1.6005   1.6903   5.2865   5.5079   5.6836   5.7975
     6.2542   6.2895   6.6180   6.8999   6.9834   7.1803   7.2281   7.3314
     7.7864   7.8491

          k = 0.3333 0.3333 0.1635 ( 33624 PWs)   bands (ev):

   -49.1965 -49.1965 -48.8783 -48.8783 -48.8769 -48.8769 -48.8769 -48.8769
   -48.8756 -48.8756 -21.1423 -21.1419 -21.1077 -21.1074 -21.1070 -21.1068
   -20.8401 -20.8396 -20.8341 -20.8339 -20.8289 -20.8288 -20.8200 -20.8199
   -20.8144 -20.8141 -20.8044 -20.8042 -20.8015 -20.8011 -20.7991 -20.7982
   -20.7929 -20.7923 -20.7904 -20.7902 -20.7882 -20.7879 -20.7860 -20.7859
    -5.5119  -5.3585  -4.6506  -4.4460  -4.1395  -4.1139  -2.0445  -1.9867
    -1.7938  -1.3120  -1.2064  -1.0250  -0.9570  -0.7985  -0.7016  -0.6318
    -0.5881  -0.4914  -0.4112  -0.3585   0.3876   0.4880   0.5755   0.6834
     1.0088   1.2215   1.6100   1.6689   5.4269   5.6002   5.8398   5.9355
     6.1315   6.3445   6.6533   6.8171   6.9960   7.2520   7.3486   7.3896
     7.5914   7.6812

          k = 0.3333 0.3333-0.3270 ( 33598 PWs)   bands (ev):

   -49.1965 -49.1965 -48.8783 -48.8783 -48.8769 -48.8769 -48.8769 -48.8769
   -48.8756 -48.8756 -21.1421 -21.1421 -21.1072 -21.1072 -21.1072 -21.1072
   -20.8398 -20.8398 -20.8340 -20.8340 -20.8289 -20.8289 -20.8200 -20.8200
   -20.8143 -20.8143 -20.8043 -20.8043 -20.8013 -20.8013 -20.7987 -20.7987
   -20.7926 -20.7926 -20.7903 -20.7903 -20.7880 -20.7880 -20.7860 -20.7860
    -5.4367  -5.4367  -4.5543  -4.5543  -4.1323  -4.1323  -2.0483  -2.0483
    -1.4322  -1.4322  -1.0594  -1.0594  -0.9188  -0.9188  -0.7481  -0.7481
    -0.5297  -0.5297  -0.3946  -0.3946   0.2955   0.2955   0.6367   0.6367
     1.2300   1.2300   1.6301   1.6301   5.6399   5.6399   6.0043   6.0043
     6.3271   6.3271   6.6927   6.6927   7.0121   7.0121   7.3972   7.3972
     7.5708   7.5708

          k = 0.3333-0.5000 0.0000 ( 33646 PWs)   bands (ev):

   -49.1965 -49.1965 -48.8776 -48.8776 -48.8776 -48.8776 -48.8763 -48.8763
   -48.8763 -48.8763 -21.1421 -21.1421 -21.1078 -21.1078 -21.1067 -21.1067
   -20.8353 -20.8353 -20.8348 -20.8348 -20.8215 -20.8215 -20.8212 -20.8212
   -20.8114 -20.8114 -20.8112 -20.8112 -20.7985 -20.7985 -20.7979 -20.7979
   -20.7954 -20.7954 -20.7948 -20.7948 -20.7882 -20.7882 -20.7879 -20.7879
    -5.2770  -5.2770  -4.6935  -4.6935  -4.2412  -4.2412  -2.0166  -2.0166
    -1.7638  -1.7638  -1.1082  -1.1082  -0.8257  -0.8257  -0.4426  -0.4426
    -0.3744  -0.3744  -0.0251  -0.0251   0.1510   0.1510   0.7115   0.7115
     0.8367   0.8367   1.7200   1.7200   5.3651   5.3651   5.5137   5.5137
     6.4270   6.4270   6.7492   6.7492   6.9078   6.9078   7.5693   7.5693
     7.8943   7.8943

          k = 0.3333-0.5000 0.1635 ( 33640 PWs)   bands (ev):

   -49.1965 -49.1965 -48.8776 -48.8776 -48.8776 -48.8776 -48.8763 -48.8763
   -48.8763 -48.8763 -21.1421 -21.1421 -21.1076 -21.1076 -21.1069 -21.1069
   -20.8352 -20.8352 -20.8348 -20.8348 -20.8214 -20.8214 -20.8212 -20.8212
   -20.8114 -20.8114 -20.8113 -20.8113 -20.7984 -20.7984 -20.7979 -20.7979
   -20.7955 -20.7955 -20.7948 -20.7948 -20.7882 -20.7882 -20.7880 -20.7880
    -5.2679  -5.2679  -4.7014  -4.7014  -4.2547  -4.2547  -2.0994  -2.0994
    -1.5799  -1.5799  -1.0192  -1.0192  -0.8007  -0.8007  -0.6599  -0.6599
    -0.3864  -0.3864   0.0341   0.0341   0.1123   0.1123   0.4669   0.4669
     1.0614   1.0614   1.7163   1.7163   5.5295   5.5295   5.6848   5.6848
     6.2715   6.2715   6.7673   6.7673   7.0248   7.0248   7.4283   7.4283
     7.7611   7.7611

          k = 0.3333-0.5000-0.3270 ( 33628 PWs)   bands (ev):

   -49.1965 -49.1965 -48.8776 -48.8776 -48.8776 -48.8776 -48.8763 -48.8763
   -48.8763 -48.8763 -21.1421 -21.1421 -21.1073 -21.1073 -21.1072 -21.1072
   -20.8352 -20.8352 -20.8349 -20.8349 -20.8213 -20.8213 -20.8213 -20.8213
   -20.8113 -20.8113 -20.8113 -20.8113 -20.7983 -20.7983 -20.7980 -20.7980
   -20.7955 -20.7955 -20.7947 -20.7947 -20.7881 -20.7881 -20.7881 -20.7881
    -5.2584  -5.2584  -4.7101  -4.7101  -4.2675  -4.2675  -2.1554  -2.1554
    -1.2564  -1.2564  -1.1330  -1.1330  -0.8735  -0.8735  -0.6707  -0.6707
    -0.4187  -0.4187   0.0065   0.0065   0.0860   0.0860   0.3599   0.3599
     1.1721   1.1721   1.7118   1.7118   5.8065   5.8065   5.8777   5.8777
     6.0818   6.0818   6.7330   6.7330   7.0940   7.0940   7.3294   7.3294
     7.5852   7.5852

          k =-0.5000-0.5000 0.0000 ( 33664 PWs)   bands (ev):

   -49.1965 -49.1965 -48.8770 -48.8770 -48.8770 -48.8770 -48.8769 -48.8769
   -48.8769 -48.8769 -21.1421 -21.1421 -21.1079 -21.1079 -21.1067 -21.1067
   -20.8294 -20.8294 -20.8288 -20.8288 -20.8244 -20.8244 -20.8242 -20.8242
   -20.8084 -20.8084 -20.8083 -20.8083 -20.8020 -20.8020 -20.8016 -20.8016
   -20.7938 -20.7938 -20.7934 -20.7934 -20.7927 -20.7927 -20.7912 -20.7912
    -4.9876  -4.9876  -4.8200  -4.8200  -4.5212  -4.5212  -2.1401  -2.1401
    -1.5497  -1.5497  -1.3778  -1.3778  -0.4212  -0.4212  -0.3442  -0.3442
    -0.1591  -0.1591  -0.0840  -0.0840   0.1278   0.1278   0.5711   0.5711
     0.6529   0.6529   1.8055   1.8055   5.2537   5.2537   5.3025   5.3025
     6.3828   6.3828   6.7847   6.7847   7.4981   7.5094   7.5094   7.6491
     7.6501   7.7659

          k =-0.5000-0.5000 0.1635 ( 33624 PWs)   bands (ev):

   -49.1965 -49.1965 -48.8770 -48.8770 -48.8770 -48.8770 -48.8769 -48.8769
   -48.8769 -48.8769 -21.1421 -21.1421 -21.1077 -21.1077 -21.1068 -21.1068
   -20.8293 -20.8293 -20.8289 -20.8289 -20.8243 -20.8243 -20.8242 -20.8242
   -20.8084 -20.8084 -20.8083 -20.8083 -20.8019 -20.8019 -20.8016 -20.8016
   -20.7938 -20.7938 -20.7935 -20.7935 -20.7926 -20.7926 -20.7913 -20.7913
    -4.9861  -4.9861  -4.7820  -4.7820  -4.5720  -4.5720  -2.2147  -2.2147
    -1.4118  -1.4118  -1.2011  -1.2011  -0.6555  -0.6555  -0.3384  -0.3384
    -0.1686  -0.1686   0.0075   0.0075   0.1194   0.1194   0.1947   0.1947
     0.9161   0.9161   1.8026   1.8026   5.4377   5.4377   5.5017   5.5017
     6.2376   6.2376   6.8889   6.8889   7.0950   7.0950   7.6835   7.6835
     7.7753   7.7754

          k =-0.5000-0.5000-0.3270 ( 33616 PWs)   bands (ev):

   -49.1965 -49.1965 -48.8770 -48.8770 -48.8770 -48.8770 -48.8769 -48.8769
   -48.8769 -48.8769 -21.1421 -21.1421 -21.1073 -21.1073 -21.1073 -21.1073
   -20.8292 -20.8292 -20.8290 -20.8290 -20.8243 -20.8243 -20.8243 -20.8243
   -20.8084 -20.8084 -20.8084 -20.8084 -20.8018 -20.8018 -20.8017 -20.8017
   -20.7936 -20.7936 -20.7936 -20.7936 -20.7925 -20.7925 -20.7915 -20.7915
    -4.9847  -4.9847  -4.6833  -4.6833  -4.6833  -4.6833  -2.2735  -2.2735
    -1.0632  -1.0632  -1.0632  -1.0632  -0.9997  -0.9997  -0.3391  -0.3391
    -0.1740  -0.1740  -0.0616  -0.0616   0.0866   0.0866   0.0866   0.0866
     1.0216   1.0216   1.7995   1.7995   5.7016   5.7016   5.9058   5.9058
     5.9058   5.9058   6.7135   6.7135   7.3042   7.3042   7.3042   7.3042
     7.5686   7.5686

     the Fermi energy is     3.2875 ev

!    total energy              =   -1223.64057149 Ry
     estimated scf accuracy    <          2.1E-09 Ry
     smearing contrib. (-TS)   =       0.00000000 Ry
     internal energy E=F+TS    =   -1223.64057149 Ry

     The total energy is F=E-TS. E is the sum of the following terms:
     one-electron contribution =    -816.68319732 Ry
     hartree contribution      =     437.54630958 Ry
     xc contribution           =    -179.75813338 Ry
     ewald contribution        =    -456.72753400 Ry
     one-center paw contrib.   =    -208.01801638 Ry

     convergence has been achieved in   9 iterations

     Forces acting on atoms (cartesian axes, Ry/au):

     atom    1 type  1   force =     0.00000000    0.00000000    0.00000000
     atom    2 type  1   force =     0.00000000    0.00000000    0.00000000
     atom    3 type  1   force =     0.00000000    0.00000000    0.00000000
     atom    4 type  1   force =     0.00000000    0.00000000   -0.00000000
     atom    5 type  1   force =     0.00000000    0.00000000   -0.00000000
     atom    6 type  1   force =     0.00000000    0.00000000    0.00000000
     atom    7 type  2   force =     0.00000000    0.00000000    0.00000000
     atom    8 type  2   force =     0.00000000    0.00000000    0.00000000
     atom    9 type  2   force =     0.00012882    0.00012882    0.00000000
     atom   10 type  2   force =    -0.00012882    0.00012882    0.00000000
     atom   11 type  2   force =    -0.00012882   -0.00012882    0.00000000
     atom   12 type  2   force =    -0.00012882    0.00012882    0.00000000
     atom   13 type  2   force =    -0.00012882   -0.00012882    0.00000000
     atom   14 type  2   force =     0.00012882   -0.00012882    0.00000000
     atom   15 type  2   force =     0.00012882   -0.00012882    0.00000000
     atom   16 type  2   force =     0.00012882    0.00012882    0.00000000
     atom   17 type  3   force =     0.00007962    0.00087409   -0.00082683
     atom   18 type  3   force =    -0.00007962    0.00087409    0.00082683
     atom   19 type  3   force =    -0.00087409   -0.00007962    0.00082683
     atom   20 type  3   force =    -0.00007962    0.00087409   -0.00082683
     atom   21 type  3   force =    -0.00087409   -0.00007962   -0.00082683
     atom   22 type  3   force =    -0.00007962   -0.00087409   -0.00082683
     atom   23 type  3   force =     0.00087409   -0.00007962   -0.00082683
     atom   24 type  3   force =    -0.00007962   -0.00087409    0.00082683
     atom   25 type  3   force =     0.00087409   -0.00007962    0.00082683
     atom   26 type  3   force =    -0.00087409    0.00007962   -0.00082683
     atom   27 type  3   force =     0.00007962    0.00087409    0.00082683
     atom   28 type  3   force =    -0.00087409    0.00007962    0.00082683
     atom   29 type  3   force =     0.00007962   -0.00087409    0.00082683
     atom   30 type  3   force =     0.00087409    0.00007962    0.00082683
     atom   31 type  3   force =     0.00007962   -0.00087409   -0.00082683
     atom   32 type  3   force =     0.00087409    0.00007962   -0.00082683
     atom   33 type  3   force =     0.00000000    0.00000000    0.00089701
     atom   34 type  3   force =     0.00000000    0.00000000   -0.00089701
     atom   35 type  3   force =     0.00000000    0.00000000    0.00089701
     atom   36 type  3   force =     0.00000000    0.00000000   -0.00089701
     atom   37 type  3   force =     0.00031442    0.00079167    0.00000000
     atom   38 type  3   force =    -0.00031442    0.00079167    0.00000000
     atom   39 type  3   force =    -0.00079167   -0.00031442   -0.00000000
     atom   40 type  3   force =    -0.00031442   -0.00079167    0.00000000
     atom   41 type  3   force =     0.00079167   -0.00031442   -0.00000000
     atom   42 type  3   force =    -0.00079167    0.00031442   -0.00000000
     atom   43 type  3   force =     0.00031442   -0.00079167    0.00000000
     atom   44 type  3   force =     0.00079167    0.00031442   -0.00000000

     Total force =     0.005706     Total SCF correction =     0.000023


     Computing stress (Cartesian axis) and pressure

          total   stress  (Ry/bohr**3)                   (kbar)     P=       13.32
   0.00009112   0.00000000   0.00000000           13.40        0.00        0.00
   0.00000000   0.00009112   0.00000000            0.00       13.40        0.00
   0.00000000   0.00000000   0.00008932            0.00        0.00       13.14


     BFGS Geometry Optimization
     Energy error            =      0.0E+00 Ry
     Gradient error          =      9.0E-04 Ry/Bohr
     Cell gradient error     =      1.3E+01 kbar

     number of scf cycles    =   1
     number of bfgs steps    =   0

     enthalpy           new  =   -1223.6405714928 Ry

     new trust radius        =       0.0252332636 bohr
     new conv_thr            =       0.0000000100 Ry

     new unit-cell volume =   3088.17655 a.u.^3 (   457.62055 Ang^3 )
     density =      1.52398 g/cm^3

CELL_PARAMETERS (alat= 12.61135185)
   1.002278059   0.000000000   0.000000000
   0.000000000   1.002278059   0.000000000
   0.000000000   0.000000000   1.532642087

ATOMIC_POSITIONS (crystal)
Al            0.0000000000        0.0000000000        0.5000000000
Al            0.5000000000        0.5000000000        0.0000000000
Al            0.0000000000        0.5000000000        0.0000000000
Al            0.5000000000        0.0000000000        0.5000000000
Al            0.0000000000        0.5000000000        0.5000000000
Al            0.5000000000        0.0000000000        0.0000000000
Na            0.0000000000        0.0000000000        0.0000000000
Na            0.5000000000        0.5000000000        0.5000000000
Na            0.7868029060        0.2868029060        0.2500000000
Na            0.7131970940        0.7868029060        0.2500000000
Na            0.2131970940        0.7131970940        0.2500000000
Na            0.7131970940        0.7868029060        0.7500000000
Na            0.2131970940        0.7131970940        0.7500000000
Na            0.2868029060        0.2131970940        0.2500000000
Na            0.2868029060        0.2131970940        0.7500000000
Na            0.7868029060        0.2868029060        0.7500000000
H             0.0448182308        0.3192781390        0.1183746687
H             0.4551817692        0.8192781390        0.3816253313
H             0.1807218610        0.4551817692        0.3816253313
H             0.4551817692        0.8192781390        0.6183746687
H             0.1807218610        0.4551817692        0.6183746687
H             0.9551817692        0.6807218610        0.1183746687
H             0.3192781390        0.9551817692        0.1183746687
H             0.9551817692        0.6807218610        0.8816253313
H             0.3192781390        0.9551817692        0.8816253313
H             0.6807218610        0.0448182308        0.1183746687
H             0.0448182308        0.3192781390        0.8816253313
H             0.6807218610        0.0448182308        0.8816253313
H             0.5448182308        0.1807218610        0.3816253313
H             0.8192781390        0.5448182308        0.3816253313
H             0.5448182308        0.1807218610        0.6183746687
H             0.8192781390        0.5448182308        0.6183746687
H             0.0000000000        0.0000000000        0.3285618233
H             0.5000000000        0.5000000000        0.1714381767
H             0.5000000000        0.5000000000        0.8285618233
H             0.0000000000        0.0000000000        0.6714381767
H             0.2521162475        0.5782400899        0.0000000000
H             0.2478837525        0.0782400899        0.5000000000
H             0.9217599101        0.2478837525        0.5000000000
H             0.7478837525        0.4217599101        0.0000000000
H             0.5782400899        0.7478837525       -0.0000000000
H             0.4217599101        0.2521162475       -0.0000000000
H             0.7521162475        0.9217599101        0.5000000000
H             0.0782400899        0.7521162475        0.5000000000



     Writing config-only to output data dir temp/na5alh14.save/
     NEW-OLD atomic charge density approx. for the potential
     extrapolated charge  136.91862, renormalised to  136.00000

     total cpu time spent up to now is       24.6 secs

     Self-consistent Calculation

     iteration #  1     ecut=    75.00 Ry     beta= 0.70
     Davidson diagonalization with overlap
     ethr =  1.00E-06,  avg # of iterations =  7.0

     total cpu time spent up to now is       27.9 secs

     total energy              =   -1223.61459604 Ry
     estimated scf accuracy    <       0.01628863 Ry

     iteration #  2     ecut=    75.00 Ry     beta= 0.70
     Davidson diagonalization with overlap
     ethr =  1.20E-05,  avg # of iterations =  4.0

     total cpu time spent up to now is       30.4 secs

     total energy              =   -1223.64267759 Ry
     estimated scf accuracy    <       0.02874881 Ry

     iteration #  3     ecut=    75.00 Ry     beta= 0.70
     Davidson diagonalization with overlap
     ethr =  1.20E-05,  avg # of iterations =  2.0

     total cpu time spent up to now is       32.1 secs

     total energy              =   -1223.64276380 Ry
     estimated scf accuracy    <       0.00567603 Ry

     iteration #  4     ecut=    75.00 Ry     beta= 0.70
     Davidson diagonalization with overlap
     ethr =  4.17E-06,  avg # of iterations =  1.2

     total cpu time spent up to now is       33.5 secs

     total energy              =   -1223.64203843 Ry
     estimated scf accuracy    <       0.00192316 Ry

     iteration #  5     ecut=    75.00 Ry     beta= 0.70
     Davidson diagonalization with overlap
     ethr =  1.41E-06,  avg # of iterations =  2.9

     total cpu time spent up to now is       35.5 secs

     total energy              =   -1223.64220585 Ry
     estimated scf accuracy    <       0.00015548 Ry

     iteration #  6     ecut=    75.00 Ry     beta= 0.70
     Davidson diagonalization with overlap
     ethr =  1.14E-07,  avg # of iterations =  2.9

     total cpu time spent up to now is       37.6 secs

     total energy              =   -1223.64226612 Ry
     estimated scf accuracy    <       0.00000599 Ry

     iteration #  7     ecut=    75.00 Ry     beta= 0.70
     Davidson diagonalization with overlap
     ethr =  4.41E-09,  avg # of iterations =  3.0

     total cpu time spent up to now is       39.4 secs

     total energy              =   -1223.64226767 Ry
     estimated scf accuracy    <       0.00000020 Ry

     iteration #  8     ecut=    75.00 Ry     beta= 0.70
     Davidson diagonalization with overlap
     ethr =  1.50E-10,  avg # of iterations =  4.0

     total cpu time spent up to now is       41.6 secs

     total energy              =   -1223.64226770 Ry
     estimated scf accuracy    <       0.00000012 Ry

     iteration #  9     ecut=    75.00 Ry     beta= 0.70
     Davidson diagonalization with overlap
     ethr =  8.82E-11,  avg # of iterations =  2.4

     total cpu time spent up to now is       43.6 secs

     total energy              =   -1223.64226766 Ry
     estimated scf accuracy    <       0.00000024 Ry

     iteration # 10     ecut=    75.00 Ry     beta= 0.70
     Davidson diagonalization with overlap
     ethr =  8.82E-11,  avg # of iterations =  2.0

     total cpu time spent up to now is       45.5 secs

     End of self-consistent calculation

          k = 0.0000 0.0000 0.0000 ( 33673 PWs)   bands (ev):

   -49.2495 -49.2495 -48.9305 -48.9305 -48.9278 -48.9278 -48.9278 -48.9278
   -48.9253 -48.9253 -21.1959 -21.1935 -21.1603 -21.1603 -21.1591 -21.1591
   -20.9032 -20.9021 -20.8892 -20.8892 -20.8891 -20.8891 -20.8887 -20.8884
   -20.8558 -20.8548 -20.8544 -20.8528 -20.8509 -20.8509 -20.8509 -20.8509
   -20.8319 -20.8319 -20.8317 -20.8317 -20.8302 -20.8298 -20.8285 -20.8284
    -6.1074  -5.7972  -4.0912  -3.8387  -2.7692  -2.6384  -2.6235  -2.5272
    -2.5272  -2.3503  -2.3503  -1.1346  -1.0317  -0.8411  -0.8411  -0.7593
    -0.6557  -0.6557  -0.2687  -0.1271   0.2727   0.6592   0.6592   0.8431
     1.0920   1.3365   1.3365   1.5823   4.4241   5.2843   6.3014   6.3014
     6.3548   6.4596   6.5026   6.9969   6.9969   7.0315   7.1181   7.1562
     7.1562   7.5251

          k = 0.0000 0.0000 0.1631 ( 33689 PWs)   bands (ev):

   -49.2495 -49.2495 -48.9305 -48.9305 -48.9278 -48.9278 -48.9278 -48.9278
   -48.9253 -48.9253 -21.1955 -21.1939 -21.1601 -21.1601 -21.1593 -21.1593
   -20.9031 -20.9022 -20.8892 -20.8892 -20.8891 -20.8891 -20.8886 -20.8884
   -20.8554 -20.8548 -20.8545 -20.8532 -20.8509 -20.8509 -20.8509 -20.8509
   -20.8319 -20.8319 -20.8317 -20.8317 -20.8301 -20.8298 -20.8285 -20.8285
    -6.0678  -5.8497  -4.0587  -3.8812  -2.7985  -2.6664  -2.5026  -2.5026
    -2.4118  -2.3775  -2.3775  -1.3896  -0.9136  -0.8232  -0.8232  -0.7680
    -0.6956  -0.6956  -0.3642  -0.2860   0.6042   0.7721   0.7721   0.9027
     1.0686   1.2479   1.2479   1.4661   4.5449   5.2688   6.2134   6.2417
     6.2417   6.4920   6.5225   6.5877   6.5877   6.9448   7.2662   7.6782
     7.6834   7.6835

          k = 0.0000 0.0000-0.3262 ( 33734 PWs)   bands (ev):

   -49.2495 -49.2495 -48.9305 -48.9305 -48.9278 -48.9278 -48.9278 -48.9278
   -48.9253 -48.9253 -21.1947 -21.1947 -21.1597 -21.1597 -21.1597 -21.1597
   -20.9026 -20.9026 -20.8892 -20.8892 -20.8892 -20.8892 -20.8885 -20.8885
   -20.8546 -20.8546 -20.8543 -20.8543 -20.8509 -20.8509 -20.8509 -20.8509
   -20.8318 -20.8318 -20.8318 -20.8318 -20.8300 -20.8300 -20.8285 -20.8285
    -5.9650  -5.9650  -3.9749  -3.9749  -2.7513  -2.7513  -2.4413  -2.4413
    -2.4413  -2.4413  -1.9400  -1.9400  -0.7697  -0.7697  -0.7697  -0.7697
    -0.6172  -0.6172  -0.5811  -0.5811   1.0007   1.0007   1.0213   1.0213
     1.0213   1.0213   1.1125   1.1125   4.9109   4.9109   6.2934   6.2934
     6.2934   6.2934   6.3839   6.3839   6.7451   6.7451   7.2930   7.2930
     8.0388   8.0388

          k = 0.0000 0.1663 0.0000 ( 33695 PWs)   bands (ev):

   -49.2495 -49.2495 -48.9303 -48.9303 -48.9280 -48.9280 -48.9276 -48.9276
   -48.9255 -48.9255 -21.1957 -21.1936 -21.1603 -21.1602 -21.1592 -21.1592
   -20.9017 -20.9006 -20.8899 -20.8899 -20.8883 -20.8882 -20.8838 -20.8837
   -20.8562 -20.8558 -20.8550 -20.8522 -20.8520 -20.8518 -20.8502 -20.8502
   -20.8352 -20.8351 -20.8319 -20.8317 -20.8316 -20.8315 -20.8292 -20.8290
    -6.0362  -5.7373  -4.2696  -4.0125  -3.1142  -2.9887  -2.5672  -2.4799
    -2.3248  -1.8779  -1.7399  -1.2416  -1.0479  -0.9480  -0.8992  -0.7645
    -0.7474  -0.7339  -0.3373  -0.1839   0.3601   0.7026   0.7756   0.8382
     1.0763   1.3262   1.3340   1.5178   4.6396   5.4614   6.2565   6.2806
     6.2872   6.2928   6.7089   6.7149   6.8935   6.9969   7.1311   7.1623
     7.2400   7.5497

          k = 0.0000 0.1663 0.1631 ( 33667 PWs)   bands (ev):

   -49.2495 -49.2495 -48.9303 -48.9303 -48.9280 -48.9280 -48.9276 -48.9276
   -48.9255 -48.9255 -21.1954 -21.1940 -21.1601 -21.1601 -21.1593 -21.1593
   -20.9015 -20.9007 -20.8899 -20.8899 -20.8883 -20.8882 -20.8838 -20.8837
   -20.8562 -20.8559 -20.8546 -20.8527 -20.8519 -20.8518 -20.8502 -20.8502
   -20.8352 -20.8351 -20.8318 -20.8317 -20.8317 -20.8315 -20.8291 -20.8291
    -5.9977  -5.7874  -4.2373  -4.0564  -3.1134  -3.0176  -2.4578  -2.3830
    -2.3475  -1.8542  -1.7725  -1.3929  -1.0409  -0.9370  -0.8636  -0.8284
    -0.7925  -0.6962  -0.3825  -0.3387   0.5929   0.7905   0.8988   0.9015
     1.0584   1.1770   1.2517   1.4977   4.7505   5.4395   6.0985   6.1969
     6.2534   6.3722   6.6472   6.6540   6.7426   6.8087   7.2006   7.2318
     7.4536   7.8378

          k = 0.0000 0.1663-0.3262 ( 33654 PWs)   bands (ev):

   -49.2495 -49.2495 -48.9303 -48.9303 -48.9280 -48.9280 -48.9276 -48.9276
   -48.9255 -48.9255 -21.1947 -21.1947 -21.1597 -21.1597 -21.1597 -21.1597
   -20.9011 -20.9011 -20.8899 -20.8899 -20.8882 -20.8882 -20.8838 -20.8838
   -20.8560 -20.8560 -20.8537 -20.8537 -20.8519 -20.8519 -20.8502 -20.8502
   -20.8351 -20.8351 -20.8318 -20.8318 -20.8316 -20.8316 -20.8291 -20.8291
    -5.8983  -5.8983  -4.1525  -4.1525  -3.0769  -3.0769  -2.4033  -2.4033
    -1.9615  -1.9615  -1.7700  -1.7700  -0.9272  -0.9272  -0.8679  -0.8679
    -0.6820  -0.6820  -0.5073  -0.5073   0.8894   0.8894   0.9668   0.9668
     1.0398   1.0398   1.2816   1.2816   5.0824   5.0824   6.1594   6.1594
     6.3516   6.3516   6.4972   6.4972   6.7702   6.7702   7.1697   7.1697
     7.8448   7.8448

          k = 0.0000 0.3326 0.0000 ( 33637 PWs)   bands (ev):

   -49.2495 -49.2495 -48.9298 -48.9298 -48.9285 -48.9285 -48.9272 -48.9272
   -48.9259 -48.9259 -21.1953 -21.1941 -21.1601 -21.1600 -21.1595 -21.1594
   -20.8985 -20.8977 -20.8921 -20.8920 -20.8811 -20.8809 -20.8746 -20.8744
   -20.8610 -20.8607 -20.8557 -20.8554 -20.8528 -20.8506 -20.8480 -20.8479
   -20.8425 -20.8421 -20.8378 -20.8377 -20.8311 -20.8310 -20.8297 -20.8296
    -5.8375  -5.5976  -4.6467  -4.4276  -3.2171  -3.1429  -2.3668  -2.3589
    -2.2643  -1.6242  -1.2969  -1.1753  -1.1568  -0.9653  -0.9251  -0.7419
    -0.6535  -0.6510  -0.5136  -0.3256   0.3907   0.6611   0.8059   0.9196
     1.0282   1.3159   1.3318   1.3436   5.1733   5.8563   5.9631   6.1402
     6.2162   6.3042   6.5467   6.6525   6.6748   7.1941   7.2579   7.3874
     7.5996   7.6489

          k = 0.0000 0.3326 0.1631 ( 33632 PWs)   bands (ev):

   -49.2495 -49.2495 -48.9298 -48.9298 -48.9285 -48.9285 -48.9272 -48.9272
   -48.9259 -48.9259 -21.1951 -21.1943 -21.1600 -21.1599 -21.1595 -21.1595
   -20.8984 -20.8979 -20.8921 -20.8920 -20.8811 -20.8809 -20.8746 -20.8744
   -20.8610 -20.8607 -20.8557 -20.8555 -20.8525 -20.8509 -20.8480 -20.8479
   -20.8425 -20.8421 -20.8378 -20.8377 -20.8311 -20.8310 -20.8297 -20.8296
    -5.8044  -5.6344  -4.6254  -4.4700  -3.2143  -3.1587  -2.3512  -2.2797
    -2.1912  -1.5663  -1.2823  -1.1976  -1.1583  -1.1509  -0.9658  -0.8347
    -0.6850  -0.5592  -0.4967  -0.4084   0.5001   0.6905   0.8485   0.9132
     1.0875   1.0941   1.3145   1.4997   5.2726   5.8436   6.0366   6.1049
     6.2180   6.2984   6.3048   6.4679   6.9215   7.1045   7.3439   7.3758
     7.6551   7.8980

          k = 0.0000 0.3326-0.3262 ( 33628 PWs)   bands (ev):

   -49.2495 -49.2495 -48.9298 -48.9298 -48.9285 -48.9285 -48.9272 -48.9272
   -48.9259 -48.9259 -21.1947 -21.1947 -21.1598 -21.1598 -21.1597 -21.1597
   -20.8981 -20.8981 -20.8920 -20.8920 -20.8810 -20.8810 -20.8745 -20.8745
   -20.8609 -20.8609 -20.8556 -20.8556 -20.8517 -20.8517 -20.8480 -20.8480
   -20.8423 -20.8423 -20.8377 -20.8377 -20.8311 -20.8311 -20.8296 -20.8296
    -5.7213  -5.7213  -4.5578  -4.5578  -3.1920  -3.1920  -2.3144  -2.3144
    -1.7996  -1.7996  -1.2513  -1.2513  -1.1565  -1.1565  -1.0078  -1.0078
    -0.6562  -0.6562  -0.4145  -0.4145   0.6482   0.6482   0.8806   0.8806
     1.0515   1.0515   1.4504   1.4504   5.5443   5.5443   5.9919   5.9919
     6.3288   6.3288   6.6233   6.6233   6.6984   6.6984   7.4342   7.4342
     7.8212   7.8212

          k = 0.0000-0.4989 0.0000 ( 33654 PWs)   bands (ev):

   -49.2495 -49.2495 -48.9291 -48.9291 -48.9291 -48.9291 -48.9265 -48.9265
   -48.9265 -48.9265 -21.1947 -21.1947 -21.1598 -21.1598 -21.1597 -21.1597
   -20.8952 -20.8952 -20.8948 -20.8948 -20.8702 -20.8702 -20.8700 -20.8700
   -20.8638 -20.8638 -20.8636 -20.8636 -20.8490 -20.8490 -20.8476 -20.8476
   -20.8439 -20.8439 -20.8438 -20.8438 -20.8303 -20.8303 -20.8303 -20.8303
    -5.6008  -5.6008  -4.7571  -4.7571  -3.1928  -3.1928  -2.2634  -2.2634
    -2.0310  -2.0310  -1.2962  -1.2962  -1.0753  -1.0753  -0.7309  -0.7309
    -0.4986  -0.4986  -0.1672  -0.1672   0.1859   0.1859   0.9084   0.9084
     1.1424   1.1424   1.3268   1.3268   5.7173   5.7173   5.9519   5.9519
     6.2191   6.2191   6.7396   6.7396   7.1546   7.1546   7.2641   7.2641
     7.7342   7.7343

          k = 0.0000-0.4989 0.1631 ( 33644 PWs)   bands (ev):

   -49.2495 -49.2495 -48.9291 -48.9291 -48.9291 -48.9291 -48.9265 -48.9265
   -48.9265 -48.9265 -21.1947 -21.1947 -21.1598 -21.1598 -21.1597 -21.1597
   -20.8952 -20.8952 -20.8948 -20.8948 -20.8702 -20.8702 -20.8700 -20.8700
   -20.8638 -20.8638 -20.8636 -20.8636 -20.8490 -20.8490 -20.8476 -20.8476
   -20.8440 -20.8440 -20.8437 -20.8437 -20.8304 -20.8304 -20.8303 -20.8303
    -5.5923  -5.5923  -4.7783  -4.7783  -3.1959  -3.1959  -2.2620  -2.2620
    -1.8998  -1.8998  -1.2912  -1.2912  -1.1660  -1.1660  -0.8439  -0.8439
    -0.5304  -0.5304  -0.0592  -0.0592   0.1723   0.1723   0.8875   0.8875
     1.0811   1.0811   1.4333   1.4333   5.7866   5.7866   6.0407   6.0407
     6.1704   6.1704   6.5562   6.5562   6.9833   6.9833   7.5163   7.5163
     7.9362   7.9362

          k = 0.0000-0.4989-0.3262 ( 33572 PWs)   bands (ev):

   -49.2495 -49.2495 -48.9291 -48.9291 -48.9291 -48.9291 -48.9265 -48.9265
   -48.9265 -48.9265 -21.1947 -21.1947 -21.1598 -21.1598 -21.1597 -21.1597
   -20.8952 -20.8952 -20.8948 -20.8948 -20.8701 -20.8701 -20.8701 -20.8701
   -20.8637 -20.8637 -20.8637 -20.8637 -20.8490 -20.8490 -20.8475 -20.8475
   -20.8441 -20.8441 -20.8437 -20.8437 -20.8304 -20.8304 -20.8302 -20.8302
    -5.5835  -5.5835  -4.7995  -4.7995  -3.1985  -3.1985  -2.2603  -2.2603
    -1.7082  -1.7082  -1.2870  -1.2870  -1.2448  -1.2448  -1.0821  -1.0821
    -0.4642  -0.4642   0.0302   0.0302   0.1402   0.1402   0.8465   0.8465
     1.0580   1.0580   1.5136   1.5136   5.8502   5.8502   6.0201   6.0201
     6.2378   6.2378   6.6424   6.6424   6.6969   6.6969   7.7652   7.7653
     7.8296   7.8296

          k = 0.1663 0.1663 0.0000 ( 33661 PWs)   bands (ev):

   -49.2495 -49.2495 -48.9301 -48.9301 -48.9278 -48.9278 -48.9278 -48.9278
   -48.9256 -48.9256 -21.1956 -21.1938 -21.1603 -21.1600 -21.1594 -21.1591
   -20.8997 -20.8987 -20.8893 -20.8892 -20.8862 -20.8861 -20.8821 -20.8819
   -20.8574 -20.8570 -20.8543 -20.8517 -20.8517 -20.8515 -20.8509 -20.8508
   -20.8353 -20.8352 -20.8350 -20.8349 -20.8316 -20.8314 -20.8314 -20.8314
    -5.9644  -5.6751  -4.3581  -4.0895  -3.4610  -3.3592  -2.4969  -2.0588
    -1.9417  -1.7038  -1.6213  -1.2064  -1.1825  -1.1359  -1.0970  -0.7469
    -0.6610  -0.6233  -0.4120  -0.2265   0.3992   0.7338   0.8262   0.8270
     1.0236   1.2685   1.4375   1.4547   4.7982   5.5700   6.1229   6.2614
     6.2914   6.3371   6.6843   6.7627   6.8737   6.8978   6.9680   6.9950
     7.1391   7.7446

          k = 0.1663 0.1663 0.1631 ( 33683 PWs)   bands (ev):

   -49.2495 -49.2495 -48.9301 -48.9301 -48.9278 -48.9278 -48.9278 -48.9278
   -48.9256 -48.9256 -21.1953 -21.1940 -21.1602 -21.1600 -21.1595 -21.1593
   -20.8996 -20.8989 -20.8893 -20.8892 -20.8862 -20.8861 -20.8821 -20.8819
   -20.8574 -20.8571 -20.8539 -20.8522 -20.8516 -20.8515 -20.8509 -20.8508
   -20.8353 -20.8352 -20.8350 -20.8349 -20.8316 -20.8315 -20.8314 -20.8314
    -5.9269  -5.7233  -4.3237  -4.1348  -3.4574  -3.3817  -2.3239  -2.0417
    -1.9578  -1.6901  -1.6393  -1.4443  -1.1297  -1.0773  -1.0200  -0.8166
    -0.6708  -0.6431  -0.4276  -0.3904   0.5468   0.8198   0.8376   0.9446
     1.0041   1.1713   1.3702   1.4681   4.9005   5.5209   6.0157   6.2592
     6.3779   6.4491   6.4644   6.7300   6.8645   6.8734   6.9109   7.1170
     7.2587   7.8256

          k = 0.1663 0.1663-0.3262 ( 33648 PWs)   bands (ev):

   -49.2495 -49.2495 -48.9301 -48.9301 -48.9278 -48.9278 -48.9278 -48.9278
   -48.9256 -48.9256 -21.1947 -21.1947 -21.1597 -21.1597 -21.1597 -21.1597
   -20.8992 -20.8992 -20.8892 -20.8892 -20.8862 -20.8862 -20.8820 -20.8820
   -20.8572 -20.8572 -20.8531 -20.8531 -20.8515 -20.8515 -20.8509 -20.8509
   -20.8353 -20.8353 -20.8349 -20.8349 -20.8315 -20.8315 -20.8314 -20.8314
    -5.8303  -5.8303  -4.2346  -4.2346  -3.4280  -3.4280  -2.0029  -2.0029
    -1.9015  -1.9015  -1.6525  -1.6525  -1.1441  -1.1441  -0.7832  -0.7832
    -0.6549  -0.6549  -0.5549  -0.5549   0.7035   0.7035   0.9506   0.9506
     1.2198   1.2198   1.2797   1.2797   5.1893   5.1893   6.1851   6.1851
     6.4213   6.4213   6.5585   6.5585   6.8518   6.8518   6.9870   6.9870
     7.5863   7.5863

          k = 0.1663 0.3326 0.0000 ( 33641 PWs)   bands (ev):

   -49.2495 -49.2495 -48.9296 -48.9296 -48.9283 -48.9283 -48.9273 -48.9273
   -48.9261 -48.9261 -21.1952 -21.1941 -21.1602 -21.1598 -21.1597 -21.1592
   -20.8959 -20.8952 -20.8896 -20.8894 -20.8805 -20.8803 -20.8741 -20.8739
   -20.8618 -20.8615 -20.8553 -20.8550 -20.8522 -20.8502 -20.8489 -20.8488
   -20.8423 -20.8418 -20.8385 -20.8384 -20.8337 -20.8337 -20.8321 -20.8320
    -5.7634  -5.5261  -4.6445  -4.4106  -3.6524  -3.5961  -2.2911  -1.8974
    -1.8016  -1.5698  -1.5696  -1.3848  -1.0512  -0.9654  -0.7483  -0.6574
    -0.6534  -0.6057  -0.5384  -0.3428   0.4033   0.6415   0.7738   0.8432
     0.9387   1.2740   1.3626   1.4956   5.1818   5.7461   5.8848   6.0014
     6.2996   6.4089   6.4662   6.4754   6.7655   7.2175   7.2765   7.3573
     7.5803   7.6323

          k = 0.1663 0.3326 0.1631 ( 33628 PWs)   bands (ev):

   -49.2495 -49.2495 -48.9296 -48.9296 -48.9283 -48.9283 -48.9273 -48.9273
   -48.9261 -48.9261 -21.1950 -21.1943 -21.1601 -21.1597 -21.1597 -21.1594
   -20.8958 -20.8953 -20.8896 -20.8894 -20.8805 -20.8803 -20.8741 -20.8740
   -20.8618 -20.8615 -20.8553 -20.8551 -20.8519 -20.8505 -20.8489 -20.8488
   -20.8422 -20.8419 -20.8385 -20.8384 -20.8337 -20.8337 -20.8321 -20.8320
    -5.7307  -5.5627  -4.6188  -4.4534  -3.6508  -3.6087  -2.1428  -1.9042
    -1.8055  -1.6428  -1.4664  -1.3651  -1.0968  -0.9634  -0.7982  -0.7737
    -0.6868  -0.5470  -0.4907  -0.4720   0.4565   0.6465   0.7110   0.7978
     1.0610   1.2672   1.3996   1.4943   5.2836   5.6996   5.9941   6.1629
     6.2126   6.2773   6.3838   6.6123   6.9080   7.1617   7.2634   7.3652
     7.4470   7.6105

          k = 0.1663 0.3326-0.3262 ( 33656 PWs)   bands (ev):

   -49.2495 -49.2495 -48.9296 -48.9296 -48.9283 -48.9283 -48.9273 -48.9273
   -48.9261 -48.9261 -21.1947 -21.1947 -21.1598 -21.1597 -21.1597 -21.1597
   -20.8956 -20.8956 -20.8895 -20.8895 -20.8804 -20.8804 -20.8740 -20.8740
   -20.8616 -20.8616 -20.8552 -20.8552 -20.8512 -20.8511 -20.8489 -20.8489
   -20.8421 -20.8420 -20.8384 -20.8384 -20.8337 -20.8337 -20.8321 -20.8321
    -5.6488  -5.6488  -4.5447  -4.5441  -3.6361  -3.6334  -1.9273  -1.9026
    -1.7691  -1.7146  -1.5062  -1.3573  -1.0544  -1.0209  -0.9552  -0.7428
    -0.7143  -0.5920  -0.4758  -0.4575   0.5040   0.5130   0.7395   0.7635
     1.2418   1.2554   1.4166   1.4557   5.4960   5.5159   6.0448   6.1459
     6.3033   6.4011   6.5534   6.7331   6.7747   6.8112   7.2863   7.3218
     7.5243   7.6158

          k = 0.1663-0.4989 0.0000 ( 33614 PWs)   bands (ev):

   -49.2495 -49.2495 -48.9290 -48.9290 -48.9290 -48.9290 -48.9267 -48.9267
   -48.9267 -48.9267 -21.1947 -21.1947 -21.1600 -21.1600 -21.1595 -21.1595
   -20.8924 -20.8924 -20.8919 -20.8919 -20.8704 -20.8704 -20.8701 -20.8701
   -20.8636 -20.8636 -20.8634 -20.8634 -20.8485 -20.8485 -20.8473 -20.8473
   -20.8447 -20.8447 -20.8445 -20.8445 -20.8330 -20.8330 -20.8329 -20.8329
    -5.5215  -5.5215  -4.7376  -4.7376  -3.6494  -3.6494  -1.9681  -1.9681
    -1.8417  -1.8417  -1.5354  -1.5354  -0.8417  -0.8417  -0.7285  -0.7285
    -0.5038  -0.5038  -0.1307  -0.1307   0.1663   0.1663   0.8102   0.8102
     1.0609   1.0609   1.4714   1.4714   5.5776   5.5776   5.7949   5.7949
     6.3827   6.3827   6.5696   6.5696   6.9753   6.9753   7.2739   7.2739
     7.7580   7.7580

          k = 0.1663-0.4989 0.1631 ( 33622 PWs)   bands (ev):

   -49.2495 -49.2495 -48.9290 -48.9290 -48.9290 -48.9290 -48.9267 -48.9267
   -48.9267 -48.9267 -21.1947 -21.1947 -21.1599 -21.1599 -21.1595 -21.1595
   -20.8924 -20.8924 -20.8920 -20.8920 -20.8703 -20.8703 -20.8702 -20.8702
   -20.8635 -20.8635 -20.8634 -20.8634 -20.8486 -20.8486 -20.8473 -20.8473
   -20.8447 -20.8447 -20.8445 -20.8445 -20.8330 -20.8330 -20.8329 -20.8329
    -5.5128  -5.5128  -4.7568  -4.7568  -3.6528  -3.6528  -1.9355  -1.9355
    -1.7680  -1.7680  -1.5292  -1.5292  -0.9178  -0.9178  -0.7270  -0.7270
    -0.6121  -0.6121  -0.0403  -0.0403   0.1504   0.1504   0.6784   0.6784
     1.1820   1.1820   1.4863   1.4863   5.6799   5.6799   5.9145   5.9145
     6.2452   6.2452   6.5823   6.5823   6.9207   6.9207   7.4219   7.4219
     7.7440   7.7441

          k = 0.1663-0.4989-0.3262 ( 33612 PWs)   bands (ev):

   -49.2495 -49.2495 -48.9290 -48.9290 -48.9290 -48.9290 -48.9267 -48.9267
   -48.9267 -48.9267 -21.1947 -21.1947 -21.1598 -21.1598 -21.1597 -21.1597
   -20.8924 -20.8924 -20.8920 -20.8920 -20.8703 -20.8703 -20.8702 -20.8702
   -20.8635 -20.8635 -20.8634 -20.8634 -20.8486 -20.8486 -20.8473 -20.8473
   -20.8447 -20.8447 -20.8444 -20.8444 -20.8330 -20.8330 -20.8329 -20.8329
    -5.5038  -5.5038  -4.7762  -4.7762  -3.6558  -3.6558  -1.9385  -1.9385
    -1.6662  -1.6662  -1.3512  -1.3512  -1.2394  -1.2394  -0.7813  -0.7813
    -0.5352  -0.5352   0.0375   0.0375   0.1062   0.1062   0.5791   0.5791
     1.2565   1.2565   1.5073   1.5073   5.8543   5.8543   5.9114   5.9114
     6.2703   6.2703   6.5596   6.5596   6.8322   6.8322   7.4962   7.4962
     7.7159   7.7159

          k = 0.3326 0.3326 0.0000 ( 33684 PWs)   bands (ev):

   -49.2495 -49.2495 -48.9292 -48.9292 -48.9279 -48.9279 -48.9278 -48.9278
   -48.9266 -48.9266 -21.1949 -21.1943 -21.1603 -21.1600 -21.1595 -21.1592
   -20.8902 -20.8896 -20.8843 -20.8839 -20.8792 -20.8791 -20.8701 -20.8699
   -20.8651 -20.8647 -20.8548 -20.8545 -20.8520 -20.8515 -20.8495 -20.8483
   -20.8436 -20.8428 -20.8409 -20.8407 -20.8390 -20.8386 -20.8367 -20.8365
    -5.5529  -5.3378  -4.7045  -4.4157  -4.1589  -4.1194  -2.0936  -1.9390
    -1.9137  -1.4686  -1.3284  -1.0880  -0.9362  -0.8488  -0.6667  -0.5981
    -0.5873  -0.4472  -0.3954  -0.3866   0.3826   0.6312   0.6367   0.7140
     0.7171   1.0609   1.5594   1.6484   5.2240   5.4429   5.6206   5.7358
     6.1939   6.2375   6.5697   6.8460   6.9207   7.1251   7.1770   7.2807
     7.7281   7.7933

          k = 0.3326 0.3326 0.1631 ( 33624 PWs)   bands (ev):

   -49.2495 -49.2495 -48.9292 -48.9292 -48.9279 -48.9279 -48.9278 -48.9278
   -48.9266 -48.9266 -21.1949 -21.1944 -21.1602 -21.1599 -21.1596 -21.1593
   -20.8902 -20.8897 -20.8842 -20.8839 -20.8792 -20.8791 -20.8701 -20.8700
   -20.8650 -20.8648 -20.8548 -20.8546 -20.8519 -20.8515 -20.8493 -20.8485
   -20.8434 -20.8429 -20.8409 -20.8407 -20.8389 -20.8386 -20.8367 -20.8366
    -5.5230  -5.3707  -4.6677  -4.4646  -4.1578  -4.1323  -2.0669  -2.0097
    -1.8177  -1.3389  -1.2327  -1.0528  -0.9849  -0.8286  -0.7321  -0.6624
    -0.6199  -0.5234  -0.4454  -0.3926   0.3540   0.4535   0.5407   0.6477
     0.9715   1.1829   1.5688   1.6272   5.3645   5.5367   5.7760   5.8710
     6.0706   6.2934   6.5935   6.7653   6.9383   7.2000   7.2944   7.3357
     7.5333   7.6248

          k = 0.3326 0.3326-0.3262 ( 33598 PWs)   bands (ev):

   -49.2495 -49.2495 -48.9292 -48.9292 -48.9279 -48.9279 -48.9278 -48.9278
   -48.9266 -48.9266 -21.1946 -21.1946 -21.1597 -21.1597 -21.1597 -21.1597
   -20.8899 -20.8899 -20.8841 -20.8841 -20.8792 -20.8792 -20.8700 -20.8700
   -20.8649 -20.8649 -20.8547 -20.8547 -20.8517 -20.8517 -20.8489 -20.8489
   -20.8432 -20.8432 -20.8408 -20.8408 -20.8388 -20.8388 -20.8366 -20.8366
    -5.4484  -5.4484  -4.5721  -4.5721  -4.1506  -4.1506  -2.0709  -2.0709
    -1.4579  -1.4579  -1.0868  -1.0868  -0.9483  -0.9483  -0.7784  -0.7784
    -0.5608  -0.5608  -0.4286  -0.4286   0.2621   0.2621   0.6015   0.6015
     1.1913   1.1913   1.5886   1.5886   5.5793   5.5793   5.9381   5.9381
     6.2630   6.2630   6.6375   6.6375   6.9555   6.9555   7.3427   7.3427
     7.5142   7.5142

          k = 0.3326-0.4989 0.0000 ( 33646 PWs)   bands (ev):

   -49.2495 -49.2495 -48.9285 -48.9285 -48.9285 -48.9285 -48.9272 -48.9272
   -48.9272 -48.9272 -21.1946 -21.1946 -21.1602 -21.1602 -21.1593 -21.1593
   -20.8854 -20.8854 -20.8849 -20.8849 -20.8719 -20.8719 -20.8717 -20.8717
   -20.8617 -20.8617 -20.8615 -20.8615 -20.8489 -20.8489 -20.8483 -20.8483
   -20.8458 -20.8458 -20.8452 -20.8452 -20.8389 -20.8389 -20.8385 -20.8385
    -5.2893  -5.2893  -4.7101  -4.7101  -4.2599  -4.2599  -2.0394  -2.0394
    -1.7873  -1.7873  -1.1356  -1.1356  -0.8543  -0.8543  -0.4759  -0.4759
    -0.4091  -0.4091  -0.0578  -0.0578   0.1181   0.1181   0.6751   0.6751
     0.8007   0.8007   1.6780   1.6780   5.3015   5.3015   5.4509   5.4509
     6.3679   6.3679   6.6987   6.6987   6.8571   6.8571   7.5115   7.5115
     7.8351   7.8351

          k = 0.3326-0.4989 0.1631 ( 33640 PWs)   bands (ev):

   -49.2495 -49.2495 -48.9285 -48.9285 -48.9285 -48.9285 -48.9272 -48.9272
   -48.9272 -48.9272 -21.1946 -21.1946 -21.1601 -21.1601 -21.1594 -21.1594
   -20.8854 -20.8854 -20.8850 -20.8850 -20.8719 -20.8719 -20.8717 -20.8717
   -20.8617 -20.8617 -20.8615 -20.8615 -20.8488 -20.8488 -20.8484 -20.8484
   -20.8459 -20.8459 -20.8452 -20.8452 -20.8388 -20.8388 -20.8386 -20.8386
    -5.2803  -5.2803  -4.7180  -4.7180  -4.2732  -4.2732  -2.1216  -2.1216
    -1.6048  -1.6048  -1.0471  -1.0471  -0.8297  -0.8297  -0.6911  -0.6911
    -0.4209  -0.4209   0.0006   0.0006   0.0796   0.0796   0.4322   0.4322
     1.0236   1.0236   1.6743   1.6743   5.4654   5.4654   5.6208   5.6208
     6.2118   6.2118   6.7162   6.7162   6.9707   6.9707   7.3726   7.3726
     7.7027   7.7027

          k = 0.3326-0.4989-0.3262 ( 33628 PWs)   bands (ev):

   -49.2495 -49.2495 -48.9285 -48.9285 -48.9285 -48.9285 -48.9272 -48.9272
   -48.9272 -48.9272 -21.1946 -21.1946 -21.1598 -21.1598 -21.1597 -21.1597
   -20.8853 -20.8853 -20.8850 -20.8850 -20.8718 -20.8718 -20.8718 -20.8718
   -20.8616 -20.8616 -20.8616 -20.8616 -20.8487 -20.8487 -20.8484 -20.8484
   -20.8459 -20.8459 -20.8452 -20.8452 -20.8388 -20.8388 -20.8387 -20.8387
    -5.2708  -5.2708  -4.7267  -4.7267  -4.2858  -4.2858  -2.1772  -2.1772
    -1.2831  -1.2831  -1.1609  -1.1609  -0.9023  -0.9023  -0.7011  -0.7011
    -0.4528  -0.4528  -0.0251  -0.0251   0.0517   0.0517   0.3256   0.3256
     1.1336   1.1336   1.6698   1.6698   5.7407   5.7407   5.8147   5.8147
     6.0186   6.0186   6.6767   6.6767   7.0384   7.0384   7.2759   7.2759
     7.5307   7.5307

          k =-0.4989-0.4989 0.0000 ( 33664 PWs)   bands (ev):

   -49.2495 -49.2495 -48.9279 -48.9279 -48.9279 -48.9279 -48.9278 -48.9278
   -48.9278 -48.9278 -21.1946 -21.1946 -21.1603 -21.1603 -21.1592 -21.1592
   -20.8797 -20.8797 -20.8791 -20.8791 -20.8748 -20.8748 -20.8746 -20.8746
   -20.8587 -20.8587 -20.8586 -20.8586 -20.8524 -20.8524 -20.8520 -20.8520
   -20.8442 -20.8442 -20.8439 -20.8439 -20.8432 -20.8432 -20.8417 -20.8417
    -5.0006  -5.0006  -4.8358  -4.8358  -4.5394  -4.5394  -2.1620  -2.1620
    -1.5751  -1.5751  -1.4028  -1.4028  -0.4546  -0.4546  -0.3768  -0.3768
    -0.1916  -0.1916  -0.1163  -0.1163   0.0929   0.0929   0.5364   0.5364
     0.6169   0.6169   1.7629   1.7629   5.1909   5.1909   5.2396   5.2396
     6.3238   6.3238   6.7378   6.7378   7.4470   7.4495   7.4495   7.5951
     7.5968   7.7020

          k =-0.4989-0.4989 0.1631 ( 33624 PWs)   bands (ev):

   -49.2495 -49.2495 -48.9279 -48.9279 -48.9279 -48.9279 -48.9278 -48.9278
   -48.9278 -48.9278 -21.1946 -21.1946 -21.1602 -21.1602 -21.1594 -21.1594
   -20.8796 -20.8796 -20.8792 -20.8792 -20.8748 -20.8748 -20.8747 -20.8747
   -20.8587 -20.8587 -20.8586 -20.8586 -20.8524 -20.8524 -20.8521 -20.8521
   -20.8442 -20.8442 -20.8439 -20.8439 -20.8431 -20.8431 -20.8418 -20.8418
    -4.9991  -4.9991  -4.7981  -4.7981  -4.5898  -4.5898  -2.2359  -2.2359
    -1.4381  -1.4381  -1.2273  -1.2273  -0.6868  -0.6868  -0.3714  -0.3714
    -0.2007  -0.2007  -0.0261  -0.0261   0.0846   0.0846   0.1622   0.1622
     0.8785   0.8785   1.7600   1.7600   5.3735   5.3735   5.4381   5.4381
     6.1774   6.1774   6.8412   6.8412   7.0375   7.0375   7.6249   7.6249
     7.7138   7.7140

          k =-0.4989-0.4989-0.3262 ( 33616 PWs)   bands (ev):

   -49.2495 -49.2495 -48.9279 -48.9279 -48.9279 -48.9279 -48.9278 -48.9278
   -48.9278 -48.9278 -21.1946 -21.1946 -21.1598 -21.1598 -21.1598 -21.1598
   -20.8795 -20.8795 -20.8793 -20.8793 -20.8747 -20.8747 -20.8747 -20.8747
   -20.8586 -20.8586 -20.8586 -20.8586 -20.8522 -20.8522 -20.8522 -20.8522
   -20.8440 -20.8440 -20.8440 -20.8440 -20.8429 -20.8429 -20.8420 -20.8420
    -4.9977  -4.9977  -4.7002  -4.7002  -4.7002  -4.7002  -2.2943  -2.2943
    -1.0918  -1.0918  -1.0918  -1.0918  -1.0274  -1.0274  -0.3730  -0.3730
    -0.2042  -0.2042  -0.0934  -0.0934   0.0521   0.0521   0.0521   0.0521
     0.9832   0.9832   1.7569   1.7569   5.6342   5.6342   5.8428   5.8428
     5.8428   5.8428   6.6580   6.6580   7.2514   7.2514   7.2514   7.2514
     7.5098   7.5098

     the Fermi energy is     3.2207 ev

!    total energy              =   -1223.64226772 Ry
     estimated scf accuracy    <          5.0E-09 Ry
     smearing contrib. (-TS)   =       0.00000000 Ry
     internal energy E=F+TS    =   -1223.64226772 Ry

     The total energy is F=E-TS. E is the sum of the following terms:
     one-electron contribution =    -818.36042696 Ry
     hartree contribution      =     438.14016546 Ry
     xc contribution           =    -179.70309216 Ry
     ewald contribution        =    -455.70525708 Ry
     one-center paw contrib.   =    -208.01365698 Ry

     convergence has been achieved in  10 iterations

     Forces acting on atoms (cartesian axes, Ry/au):

     atom    1 type  1   force =     0.00000000    0.00000000    0.00000000
     atom    2 type  1   force =     0.00000000    0.00000000    0.00000000
     atom    3 type  1   force =     0.00000000    0.00000000    0.00000000
     atom    4 type  1   force =     0.00000000    0.00000000   -0.00000000
     atom    5 type  1   force =     0.00000000    0.00000000   -0.00000000
     atom    6 type  1   force =     0.00000000    0.00000000    0.00000000
     atom    7 type  2   force =     0.00000000    0.00000000    0.00000000
     atom    8 type  2   force =     0.00000000    0.00000000    0.00000000
     atom    9 type  2   force =     0.00013363    0.00013363    0.00000000
     atom   10 type  2   force =    -0.00013363    0.00013363    0.00000000
     atom   11 type  2   force =    -0.00013363   -0.00013363    0.00000000
     atom   12 type  2   force =    -0.00013363    0.00013363    0.00000000
     atom   13 type  2   force =    -0.00013363   -0.00013363    0.00000000
     atom   14 type  2   force =     0.00013363   -0.00013363    0.00000000
     atom   15 type  2   force =     0.00013363   -0.00013363    0.00000000
     atom   16 type  2   force =     0.00013363    0.00013363    0.00000000
     atom   17 type  3   force =    -0.00010559    0.00130312   -0.00118774
     atom   18 type  3   force =     0.00010559    0.00130312    0.00118774
     atom   19 type  3   force =    -0.00130312    0.00010559    0.00118774
     atom   20 type  3   force =     0.00010559    0.00130312   -0.00118774
[...]
   -21.1155 -21.1155 -21.1151 -21.1151 -21.1126 -21.1126 -21.1117 -21.1117
    -5.9050  -5.9050  -4.3687  -4.3687  -3.5568  -3.5568  -2.1103  -2.1103
    -2.0272  -2.0272  -1.7903  -1.7903  -1.2912  -1.2912  -0.9536  -0.9536
    -0.8300  -0.8300  -0.7413  -0.7413   0.5406   0.5406   0.8099   0.8099
     1.0390   1.0390   1.0905   1.0905   4.9049   4.9049   5.9488   5.9488
     6.1645   6.1645   6.2971   6.2971   6.6157   6.6157   6.6450   6.6450
     7.2762   7.2762

          k = 0.1646 0.3292 0.0000 ( 35012 PWs)   bands (ev):

   -49.5163 -49.5163 -49.2108 -49.2108 -49.2097 -49.2097 -49.2088 -49.2088
   -49.2078 -49.2078 -21.4610 -21.4601 -21.4243 -21.4239 -21.4239 -21.4235
   -21.1732 -21.1726 -21.1670 -21.1668 -21.1584 -21.1584 -21.1514 -21.1512
   -21.1420 -21.1417 -21.1337 -21.1335 -21.1286 -21.1274 -21.1269 -21.1264
   -21.1209 -21.1204 -21.1180 -21.1179 -21.1142 -21.1141 -21.1126 -21.1125
    -5.8357  -5.6153  -4.7531  -4.5337  -3.7836  -3.7360  -2.3956  -2.0073
    -1.9167  -1.7028  -1.6936  -1.5288  -1.2151  -1.1066  -0.9095  -0.8371
    -0.8200  -0.7891  -0.7171  -0.5393   0.2570   0.4813   0.6014   0.6691
     0.7752   1.0849   1.1733   1.3011   4.8959   5.4372   5.6519   5.7034
     6.0633   6.1156   6.2028   6.2397   6.5086   6.9924   7.0283   7.0812
     7.2591   7.3079

          k = 0.1646 0.3292 0.1610 ( 35050 PWs)   bands (ev):

   -49.5163 -49.5163 -49.2108 -49.2108 -49.2097 -49.2097 -49.2088 -49.2088
   -49.2078 -49.2078 -21.4609 -21.4603 -21.4242 -21.4239 -21.4239 -21.4236
   -21.1731 -21.1726 -21.1669 -21.1668 -21.1584 -21.1584 -21.1513 -21.1512
   -21.1419 -21.1418 -21.1337 -21.1335 -21.1284 -21.1275 -21.1269 -21.1266
   -21.1208 -21.1205 -21.1180 -21.1179 -21.1142 -21.1141 -21.1126 -21.1125
    -5.8052  -5.6492  -4.7286  -4.5734  -3.7825  -3.7470  -2.2553  -2.0127
    -1.9201  -1.7736  -1.6036  -1.5046  -1.2575  -1.1045  -0.9581  -0.9356
    -0.8599  -0.7276  -0.6769  -0.6603   0.2994   0.4826   0.5491   0.6286
     0.8864   1.0825   1.2084   1.2989   4.9984   5.4071   5.7589   5.8711
     5.9474   6.0127   6.1139   6.3449   6.6499   6.8859   7.0253   7.0917
     7.1699   7.3387

          k = 0.1646 0.3292-0.3219 ( 35068 PWs)   bands (ev):

   -49.5163 -49.5163 -49.2108 -49.2108 -49.2097 -49.2097 -49.2088 -49.2088
   -49.2078 -49.2078 -21.4606 -21.4606 -21.4239 -21.4239 -21.4239 -21.4239
   -21.1729 -21.1729 -21.1669 -21.1669 -21.1584 -21.1584 -21.1513 -21.1513
   -21.1419 -21.1419 -21.1336 -21.1336 -21.1280 -21.1278 -21.1268 -21.1268
   -21.1206 -21.1206 -21.1180 -21.1179 -21.1142 -21.1141 -21.1125 -21.1125
    -5.7290  -5.7290  -4.6586  -4.6580  -3.7704  -3.7681  -2.0372  -2.0159
    -1.8990  -1.8495  -1.6327  -1.4997  -1.2047  -1.1747  -1.0984  -0.9099
    -0.8787  -0.7737  -0.6623  -0.6496   0.3446   0.3537   0.5755   0.6008
     1.0581   1.0690   1.2265   1.2627   5.2159   5.2346   5.8015   5.8806
     6.0264   6.1242   6.2769   6.4723   6.4838   6.5154   6.9990   7.0519
     7.2446   7.3327

          k = 0.1646-0.4937 0.0000 ( 35036 PWs)   bands (ev):

   -49.5163 -49.5163 -49.2102 -49.2102 -49.2102 -49.2102 -49.2083 -49.2083
   -49.2083 -49.2083 -21.4606 -21.4606 -21.4241 -21.4241 -21.4237 -21.4237
   -21.1697 -21.1697 -21.1693 -21.1693 -21.1496 -21.1496 -21.1494 -21.1494
   -21.1419 -21.1419 -21.1418 -21.1418 -21.1256 -21.1256 -21.1247 -21.1247
   -21.1232 -21.1232 -21.1230 -21.1230 -21.1134 -21.1134 -21.1134 -21.1134
    -5.6050  -5.6050  -4.8440  -4.8440  -3.7900  -3.7900  -2.0844  -2.0844
    -1.9496  -1.9496  -1.6702  -1.6702  -1.0140  -1.0140  -0.8891  -0.8891
    -0.6914  -0.6914  -0.2817  -0.2817  -0.0111  -0.0111   0.6334   0.6334
     0.8847   0.8847   1.2782   1.2782   5.2852   5.2852   5.5134   5.5134
     6.1444   6.1444   6.2981   6.2981   6.7380   6.7380   7.0192   7.0192
     7.5339   7.5339

          k = 0.1646-0.4937 0.1610 ( 35060 PWs)   bands (ev):

   -49.5163 -49.5163 -49.2102 -49.2102 -49.2102 -49.2102 -49.2083 -49.2083
   -49.2083 -49.2083 -21.4606 -21.4606 -21.4241 -21.4241 -21.4238 -21.4238
   -21.1697 -21.1697 -21.1693 -21.1693 -21.1496 -21.1496 -21.1494 -21.1494
   -21.1419 -21.1419 -21.1418 -21.1418 -21.1256 -21.1256 -21.1247 -21.1247
   -21.1232 -21.1232 -21.1229 -21.1229 -21.1135 -21.1135 -21.1133 -21.1133
    -5.5972  -5.5972  -4.8611  -4.8611  -3.7933  -3.7933  -2.0461  -2.0461
    -1.8897  -1.8897  -1.6631  -1.6631  -1.0825  -1.0825  -0.8891  -0.8891
    -0.7881  -0.7881  -0.2044  -0.2044  -0.0266  -0.0266   0.5092   0.5092
     1.0002   1.0002   1.2926   1.2926   5.3888   5.3888   5.6315   5.6315
     5.9995   5.9995   6.3117   6.3117   6.6679   6.6679   7.1645   7.1645
     7.4491   7.4491

          k = 0.1646-0.4937-0.3219 ( 35064 PWs)   bands (ev):

   -49.5163 -49.5163 -49.2102 -49.2102 -49.2102 -49.2102 -49.2083 -49.2083
   -49.2083 -49.2083 -21.4606 -21.4606 -21.4239 -21.4239 -21.4239 -21.4239
   -21.1697 -21.1697 -21.1693 -21.1693 -21.1495 -21.1495 -21.1495 -21.1495
   -21.1418 -21.1418 -21.1418 -21.1418 -21.1256 -21.1256 -21.1247 -21.1247
   -21.1232 -21.1232 -21.1229 -21.1229 -21.1135 -21.1135 -21.1133 -21.1133
    -5.5892  -5.5892  -4.8782  -4.8782  -3.7961  -3.7961  -2.0444  -2.0444
    -1.8023  -1.8023  -1.4922  -1.4922  -1.3844  -1.3844  -0.9352  -0.9352
    -0.7217  -0.7217  -0.1353  -0.1353  -0.0661  -0.0661   0.4165   0.4165
     1.0718   1.0718   1.3129   1.3129   5.5604   5.5604   5.6484   5.6484
     6.0117   6.0117   6.2798   6.2798   6.5437   6.5437   7.2283   7.2283
     7.4497   7.4497

          k = 0.3292 0.3292 0.0000 ( 35041 PWs)   bands (ev):

   -49.5163 -49.5163 -49.2104 -49.2104 -49.2093 -49.2093 -49.2092 -49.2092
   -49.2082 -49.2082 -21.4608 -21.4603 -21.4244 -21.4241 -21.4237 -21.4235
   -21.1682 -21.1677 -21.1621 -21.1618 -21.1581 -21.1580 -21.1473 -21.1472
   -21.1452 -21.1450 -21.1332 -21.1330 -21.1301 -21.1299 -21.1264 -21.1253
   -21.1224 -21.1220 -21.1195 -21.1193 -21.1186 -21.1181 -21.1159 -21.1157
    -5.6314  -5.4311  -4.8115  -4.5411  -4.2773  -4.2372  -2.2051  -2.0348
    -2.0135  -1.6057  -1.4725  -1.2342  -1.0988  -1.0155  -0.8179  -0.7739
    -0.7554  -0.6259  -0.5829  -0.5802   0.2381   0.4644   0.4649   0.5316
     0.5367   0.8720   1.3674   1.4520   4.9435   5.1314   5.3258   5.4594
     5.9470   5.9992   6.3472   6.5828   6.6748   6.8560   6.9476   7.0401
     7.4926   7.5925

          k = 0.3292 0.3292 0.1610 ( 35002 PWs)   bands (ev):

   -49.5163 -49.5163 -49.2104 -49.2104 -49.2093 -49.2093 -49.2092 -49.2092
   -49.2082 -49.2082 -21.4607 -21.4604 -21.4242 -21.4241 -21.4238 -21.4236
   -21.1681 -21.1677 -21.1620 -21.1618 -21.1581 -21.1580 -21.1473 -21.1472
   -21.1452 -21.1450 -21.1332 -21.1331 -21.1300 -21.1299 -21.1262 -21.1254
   -21.1224 -21.1221 -21.1195 -21.1194 -21.1186 -21.1182 -21.1159 -21.1157
    -5.6034  -5.4616  -4.7769  -4.5867  -4.2757  -4.2494  -2.1723  -2.1056
    -1.9301  -1.4821  -1.3812  -1.2034  -1.1417  -0.9890  -0.9101  -0.8134
    -0.7933  -0.6986  -0.6246  -0.5784   0.1999   0.2937   0.3710   0.4745
     0.7846   0.9877   1.3761   1.4321   5.0848   5.2379   5.4972   5.5662
     5.8135   6.0527   6.3214   6.5213   6.6744   6.9486   7.0466   7.0828
     7.2498   7.3621

          k = 0.3292 0.3292-0.3219 ( 35026 PWs)   bands (ev):

   -49.5163 -49.5163 -49.2104 -49.2104 -49.2093 -49.2093 -49.2092 -49.2092
   -49.2082 -49.2082 -21.4606 -21.4606 -21.4239 -21.4239 -21.4239 -21.4239
   -21.1679 -21.1679 -21.1619 -21.1619 -21.1580 -21.1580 -21.1472 -21.1472
   -21.1451 -21.1451 -21.1331 -21.1331 -21.1300 -21.1300 -21.1259 -21.1259
   -21.1222 -21.1222 -21.1194 -21.1194 -21.1184 -21.1184 -21.1158 -21.1158
    -5.5339  -5.5339  -4.6871  -4.6871  -4.2675  -4.2675  -2.1685  -2.1685
    -1.5957  -1.5957  -1.2354  -1.2354  -1.1106  -1.1106  -0.9404  -0.9404
    -0.7323  -0.7323  -0.6100  -0.6100   0.1117   0.1117   0.4309   0.4309
     0.9950   0.9950   1.3956   1.3956   5.3095   5.3095   5.6497   5.6497
     5.9662   5.9662   6.3705   6.3705   6.6685   6.6685   7.0882   7.0882
     7.2453   7.2453

          k = 0.3292-0.4937 0.0000 ( 35002 PWs)   bands (ev):

   -49.5163 -49.5163 -49.2098 -49.2098 -49.2098 -49.2098 -49.2087 -49.2087
   -49.2087 -49.2087 -21.4605 -21.4605 -21.4243 -21.4243 -21.4235 -21.4235
   -21.1636 -21.1636 -21.1632 -21.1632 -21.1515 -21.1515 -21.1513 -21.1513
   -21.1397 -21.1397 -21.1396 -21.1396 -21.1273 -21.1273 -21.1270 -21.1270
   -21.1235 -21.1235 -21.1229 -21.1229 -21.1179 -21.1179 -21.1175 -21.1175
    -5.3781  -5.3781  -4.8185  -4.8185  -4.3807  -4.3807  -2.1319  -2.1319
    -1.9105  -1.9105  -1.2874  -1.2874  -1.0120  -1.0120  -0.6681  -0.6681
    -0.5858  -0.5858  -0.2147  -0.2147  -0.0540  -0.0540   0.4915   0.4915
     0.6235   0.6235   1.4817   1.4817   5.0099   5.0099   5.1632   5.1632
     6.1264   6.1264   6.4762   6.4762   6.6197   6.6197   7.2313   7.2313
     7.6035   7.6035

          k = 0.3292-0.4937 0.1610 ( 35010 PWs)   bands (ev):

   -49.5163 -49.5163 -49.2098 -49.2098 -49.2098 -49.2098 -49.2087 -49.2087
   -49.2087 -49.2087 -21.4605 -21.4605 -21.4242 -21.4242 -21.4237 -21.4237
   -21.1636 -21.1636 -21.1633 -21.1633 -21.1514 -21.1514 -21.1513 -21.1513
   -21.1397 -21.1397 -21.1396 -21.1396 -21.1273 -21.1273 -21.1271 -21.1271
   -21.1235 -21.1235 -21.1228 -21.1228 -21.1178 -21.1178 -21.1176 -21.1176
    -5.3700  -5.3700  -4.8255  -4.8255  -4.3928  -4.3928  -2.2134  -2.2134
    -1.7350  -1.7350  -1.2025  -1.2025  -0.9920  -0.9920  -0.8643  -0.8643
    -0.5965  -0.5965  -0.1641  -0.1641  -0.0896  -0.0896   0.2619   0.2619
     0.8327   0.8327   1.4781   1.4781   5.1748   5.1748   5.3293   5.3293
     5.9589   5.9589   6.4847   6.4847   6.7113   6.7113   7.1164   7.1164
     7.4139   7.4139

          k = 0.3292-0.4937-0.3219 ( 35024 PWs)   bands (ev):

   -49.5163 -49.5163 -49.2098 -49.2098 -49.2098 -49.2098 -49.2087 -49.2087
   -49.2087 -49.2087 -21.4605 -21.4605 -21.4239 -21.4239 -21.4239 -21.4239
   -21.1635 -21.1635 -21.1633 -21.1633 -21.1514 -21.1514 -21.1514 -21.1514
   -21.1397 -21.1397 -21.1397 -21.1397 -21.1272 -21.1272 -21.1271 -21.1271
   -21.1235 -21.1235 -21.1228 -21.1228 -21.1177 -21.1177 -21.1177 -21.1177
    -5.3615  -5.3615  -4.8332  -4.8332  -4.4042  -4.4042  -2.2673  -2.2673
    -1.4315  -1.4315  -1.3105  -1.3105  -1.0590  -1.0590  -0.8779  -0.8779
    -0.6233  -0.6233  -0.1807  -0.1807  -0.1197  -0.1197   0.1569   0.1569
     0.9375   0.9375   1.4739   1.4739   5.4562   5.4562   5.5299   5.5299
     5.7394   5.7394   6.4028   6.4028   6.7662   6.7662   7.0155   7.0155
     7.2729   7.2729

          k =-0.4937-0.4937 0.0000 ( 35032 PWs)   bands (ev):

   -49.5163 -49.5163 -49.2093 -49.2093 -49.2093 -49.2093 -49.2092 -49.2092
   -49.2092 -49.2092 -21.4605 -21.4605 -21.4244 -21.4244 -21.4235 -21.4235
   -21.1584 -21.1584 -21.1580 -21.1580 -21.1544 -21.1544 -21.1543 -21.1543
   -21.1368 -21.1368 -21.1367 -21.1367 -21.1311 -21.1311 -21.1309 -21.1309
   -21.1217 -21.1217 -21.1215 -21.1215 -21.1212 -21.1212 -21.1200 -21.1200
    -5.0953  -5.0953  -4.9368  -4.9368  -4.6593  -4.6593  -2.2489  -2.2489
    -1.7078  -1.7078  -1.5401  -1.5401  -0.6485  -0.6485  -0.5484  -0.5484
    -0.3764  -0.3764  -0.2694  -0.2694  -0.0781  -0.0781   0.3614   0.3614
     0.4319   0.4319   1.5642   1.5642   4.9113   4.9113   4.9446   4.9446
     6.0929   6.0929   6.5222   6.5222   7.2071   7.2071   7.3704   7.3707
     7.3757   7.3757

          k =-0.4937-0.4937 0.1610 ( 34968 PWs)   bands (ev):

   -49.5163 -49.5163 -49.2093 -49.2093 -49.2093 -49.2093 -49.2092 -49.2092
   -49.2092 -49.2092 -21.4605 -21.4605 -21.4242 -21.4242 -21.4236 -21.4236
   -21.1584 -21.1584 -21.1580 -21.1580 -21.1544 -21.1544 -21.1543 -21.1543
   -21.1368 -21.1368 -21.1368 -21.1368 -21.1311 -21.1311 -21.1309 -21.1309
   -21.1217 -21.1217 -21.1215 -21.1215 -21.1211 -21.1211 -21.1201 -21.1201
    -5.0941  -5.0941  -4.9013  -4.9013  -4.7061  -4.7061  -2.3211  -2.3211
    -1.5775  -1.5775  -1.3736  -1.3736  -0.8625  -0.8625  -0.5415  -0.5415
    -0.3856  -0.3856  -0.1907  -0.1907  -0.0861  -0.0861   0.0028   0.0028
     0.6840   0.6840   1.5613   1.5613   5.0888   5.0888   5.1429   5.1429
     5.9304   5.9304   6.6194   6.6194   6.7845   6.7845   7.3436   7.3436
     7.4001   7.4001

          k =-0.4937-0.4937-0.3219 ( 35032 PWs)   bands (ev):

   -49.5163 -49.5163 -49.2093 -49.2093 -49.2093 -49.2093 -49.2092 -49.2092
   -49.2092 -49.2092 -21.4605 -21.4605 -21.4239 -21.4239 -21.4239 -21.4239
   -21.1583 -21.1583 -21.1581 -21.1581 -21.1543 -21.1543 -21.1543 -21.1543
   -21.1368 -21.1368 -21.1368 -21.1368 -21.1310 -21.1310 -21.1310 -21.1310
   -21.1216 -21.1216 -21.1216 -21.1216 -21.1210 -21.1210 -21.1202 -21.1202
    -5.0929  -5.0929  -4.8093  -4.8093  -4.8093  -4.8093  -2.3777  -2.3777
    -1.2474  -1.2474  -1.2474  -1.2474  -1.1888  -1.1888  -0.5366  -0.5366
    -0.3927  -0.3927  -0.2369  -0.2369  -0.1173  -0.1173  -0.1173  -0.1173
     0.7838   0.7838   1.5583   1.5583   5.3401   5.3401   5.5644   5.5644
     5.5644   5.5644   6.3960   6.3960   6.9921   6.9921   6.9921   6.9921
     7.2283   7.2283

     the Fermi energy is     2.9422 ev

!    total energy              =   -1223.64645231 Ry
     estimated scf accuracy    <          6.9E-12 Ry
     smearing contrib. (-TS)   =       0.00000000 Ry
     internal energy E=F+TS    =   -1223.64645231 Ry

     The total energy is F=E-TS. E is the sum of the following terms:
     one-electron contribution =    -826.29415392 Ry
     hartree contribution      =     440.85794900 Ry
     xc contribution           =    -179.51255596 Ry
     ewald contribution        =    -450.69285864 Ry
     one-center paw contrib.   =    -208.00483279 Ry

     convergence has been achieved in  11 iterations

     Forces acting on atoms (cartesian axes, Ry/au):

     atom    1 type  1   force =     0.00000000    0.00000000    0.00000000
     atom    2 type  1   force =     0.00000000    0.00000000    0.00000000
     atom    3 type  1   force =     0.00000000    0.00000000    0.00000000
     atom    4 type  1   force =     0.00000000    0.00000000   -0.00000000
     atom    5 type  1   force =     0.00000000    0.00000000   -0.00000000
     atom    6 type  1   force =     0.00000000    0.00000000    0.00000000
     atom    7 type  2   force =     0.00000000    0.00000000    0.00000000
     atom    8 type  2   force =     0.00000000    0.00000000    0.00000000
     atom    9 type  2   force =    -0.00017285   -0.00017285    0.00000000
     atom   10 type  2   force =     0.00017285   -0.00017285    0.00000000
     atom   11 type  2   force =     0.00017285    0.00017285    0.00000000
     atom   12 type  2   force =     0.00017285   -0.00017285    0.00000000
     atom   13 type  2   force =     0.00017285    0.00017285    0.00000000
     atom   14 type  2   force =    -0.00017285    0.00017285    0.00000000
     atom   15 type  2   force =    -0.00017285    0.00017285    0.00000000
     atom   16 type  2   force =    -0.00017285   -0.00017285    0.00000000
     atom   17 type  3   force =    -0.00022363    0.00022609    0.00004780
     atom   18 type  3   force =     0.00022363    0.00022609   -0.00004780
     atom   19 type  3   force =    -0.00022609    0.00022363   -0.00004780
     atom   20 type  3   force =     0.00022363    0.00022609    0.00004780
     atom   21 type  3   force =    -0.00022609    0.00022363    0.00004780
     atom   22 type  3   force =     0.00022363   -0.00022609    0.00004780
     atom   23 type  3   force =     0.00022609    0.00022363    0.00004780
     atom   24 type  3   force =     0.00022363   -0.00022609   -0.00004780
     atom   25 type  3   force =     0.00022609    0.00022363   -0.00004780
     atom   26 type  3   force =    -0.00022609   -0.00022363    0.00004780
     atom   27 type  3   force =    -0.00022363    0.00022609   -0.00004780
     atom   28 type  3   force =    -0.00022609   -0.00022363   -0.00004780
     atom   29 type  3   force =    -0.00022363   -0.00022609   -0.00004780
     atom   30 type  3   force =     0.00022609   -0.00022363   -0.00004780
     atom   31 type  3   force =    -0.00022363   -0.00022609    0.00004780
     atom   32 type  3   force =     0.00022609   -0.00022363    0.00004780
     atom   33 type  3   force =     0.00000000    0.00000000   -0.00032784
     atom   34 type  3   force =     0.00000000    0.00000000    0.00032784
     atom   35 type  3   force =     0.00000000    0.00000000   -0.00032784
     atom   36 type  3   force =     0.00000000    0.00000000    0.00032784
     atom   37 type  3   force =     0.00013804   -0.00008333    0.00000000
     atom   38 type  3   force =    -0.00013804   -0.00008333   -0.00000000
     atom   39 type  3   force =     0.00008333   -0.00013804    0.00000000
     atom   40 type  3   force =    -0.00013804    0.00008333    0.00000000
     atom   41 type  3   force =    -0.00008333   -0.00013804   -0.00000000
     atom   42 type  3   force =     0.00008333    0.00013804   -0.00000000
     atom   43 type  3   force =     0.00013804    0.00008333   -0.00000000
     atom   44 type  3   force =    -0.00008333    0.00013804    0.00000000

     Total force =     0.001664     Total SCF correction =     0.000002


     Computing stress (Cartesian axis) and pressure

          total   stress  (Ry/bohr**3)                   (kbar)     P=       -0.27
  -0.00000197   0.00000000   0.00000000           -0.29        0.00        0.00
   0.00000000  -0.00000197   0.00000000            0.00       -0.29        0.00
   0.00000000   0.00000000  -0.00000158            0.00        0.00       -0.23

 
     init_run     :      2.42s CPU      2.60s WALL (       2 calls)
     electrons    :    366.04s CPU    373.31s WALL (      18 calls)
     update_pot   :      6.21s CPU      6.30s WALL (      16 calls)
     forces       :      9.76s CPU      9.94s WALL (      18 calls)
     stress       :     42.22s CPU     42.43s WALL (      18 calls)

     Called by init_run:
     wfcinit      :      1.31s CPU      1.38s WALL (       2 calls)
     potinit      :      0.38s CPU      0.41s WALL (       2 calls)
     hinit0       :      0.36s CPU      0.39s WALL (       2 calls)

     Called by electrons:
     c_bands      :    309.61s CPU    315.15s WALL (     177 calls)
     sum_band     :     42.43s CPU     43.06s WALL (     177 calls)
     v_of_rho     :      1.98s CPU      2.02s WALL (     191 calls)
     newd         :      2.85s CPU      2.99s WALL (     191 calls)
     PAW_pot      :      9.72s CPU     10.26s WALL (     207 calls)
     mix_rho      :      0.66s CPU      0.68s WALL (     177 calls)

     Called by c_bands:
     init_us_2    :      7.41s CPU      7.54s WALL (    4080 calls)
     init_us_2:cp :      7.38s CPU      7.53s WALL (    4080 calls)
     cegterg      :    275.10s CPU    279.20s WALL (    1774 calls)

     Called by *egterg:
     cdiaghg      :     46.43s CPU     46.80s WALL (    7092 calls)
     h_psi        :    164.80s CPU    167.73s WALL (    7316 calls)
     s_psi        :     15.35s CPU     15.54s WALL (    7316 calls)
     g_psi        :      0.73s CPU      0.74s WALL (    5522 calls)

     Called by h_psi:
     h_psi:calbec :     18.87s CPU     19.12s WALL (    7316 calls)
     vloc_psi     :    127.79s CPU    130.25s WALL (    7316 calls)
     add_vuspsi   :     16.43s CPU     16.59s WALL (    7316 calls)

     General routines
     calbec       :     28.91s CPU     29.24s WALL (   10146 calls)
     fft          :      1.63s CPU      1.69s WALL (    2917 calls)
     ffts         :      0.18s CPU      0.18s WALL (     368 calls)
     fftw         :    139.11s CPU    141.69s WALL (  947276 calls)
     interpolate  :      0.19s CPU      0.20s WALL (     191 calls)
 
     Parallel routines
 
     PWSCF        :   7m 9.51s CPU   7m17.92s WALL

 
   This run was terminated on:  20: 7:33  31Oct2023            

=------------------------------------------------------------------------------=
   JOB DONE.
=------------------------------------------------------------------------------=
Job execution finished at: Tue Oct 31 20:07:33 IST 2023
