==========================================
SLURM_CLUSTER_NAME = paramganga
SLURM_ARRAY_JOB_ID = 
SLURM_ARRAY_TASK_ID = 
SLURM_ARRAY_TASK_COUNT = 
SLURM_ARRAY_TASK_MAX = 
SLURM_ARRAY_TASK_MIN = 
SLURM_JOB_ACCOUNT = iitr
SLURM_JOB_ID = 168266
SLURM_JOB_NAME = 19280
SLURM_JOB_NODELIST = cn[001-003]
SLURM_JOB_USER = garima.iitr
SLURM_JOB_UID = 38339
SLURM_JOB_PARTITION = small
SLURM_TASK_PID = 44603
SLURM_SUBMIT_DIR = /home/garima.iitr/.cache/.es/compmat/na5alh14
SLURM_CPUS_ON_NODE = 48
SLURM_NTASKS = 144
SLURM_TASK_PID = 44603
==========================================
cn001
 
:: initializing oneAPI environment ...
   slurm_script: BASH_VERSION = 4.2.46(2)-release
   args: Using "$@" for setvars.sh arguments: 
:: advisor -- latest
:: ccl -- latest
:: clck -- latest
:: compiler -- latest
:: dal -- latest
:: debugger -- latest
:: dev-utilities -- latest
:: dnnl -- latest
:: dpcpp-ct -- latest
:: dpl -- latest
:: inspector -- latest
:: intelpython -- latest
:: ipp -- latest
:: ippcp -- latest
:: ipp -- latest
:: itac -- latest
:: mkl -- latest
:: mpi -- latest
:: tbb -- latest
:: vpl -- latest
:: vtune -- latest
:: oneAPI environment initialized ::
 
Job execution start: Tue Oct 31 19:16:10 IST 2023
Job submitted by garima.iitr
The job ID is:168266

     Program PWSCF v.7.1 starts on 31Oct2023 at 19:16:14 

     This program is part of the open-source Quantum ESPRESSO suite
     for quantum simulation of materials; please cite
         "P. Giannozzi et al., J. Phys.:Condens. Matter 21 395502 (2009);
         "P. Giannozzi et al., J. Phys.:Condens. Matter 29 465901 (2017);
         "P. Giannozzi et al., J. Chem. Phys. 152 154105 (2020);
          URL http://www.quantum-espresso.org", 
     in publications or presentations arising from this work. More details at
     http://www.quantum-espresso.org/quote

     Parallel version (MPI & OpenMP), running on     144 processor cores
     Number of MPI processes:               144
     Threads/MPI process:                     1

     MPI processes distributed on     3 nodes
     167592 MiB available memory on the printing compute node when the environment starts
 
     Reading input from na5alh14.in

     Current dimensions of program PWSCF are:
     Max number of different atomic species (ntypx) = 10
     Max number of k-points (npk) =  40000
     Max angular momentum in pseudopotentials (lmaxx) =  4
     file Al.pbe-n-kjpaw_psl.1.0.0.UPF: wavefunction(s)  3S 3P renormalized

     IMPORTANT: XC functional enforced from input :
     Exchange-correlation= PBE
                           (   1   4   3   4   0   0   0)
     Any further DFT definition will be discarded
     Please, verify this is what you really want

     Message from routine setup:
     using ibrav=0 with symmetry is DISCOURAGED, use correct ibrav instead
 
     K-points division:     npool     =       3
     R & G space division:  proc/nbgrp/npool/nimage =      48
     Subspace diagonalization in iterative solution of the eigenvalue problem:
     a serial algorithm will be used

 
     Parallelization info
     --------------------
     sticks:   dense  smooth     PW     G-vecs:    dense   smooth      PW
     Min          98      79     21                 7828     5605     795
     Max          99      80     22                 7839     5611     802
     Sum        4725    3793   1041               375859   269139   38367
 
     Using Slab Decomposition
 


     bravais-lattice index     =            0
     lattice parameter (alat)  =      12.6114  a.u.
     unit-cell volume          =    3067.3055 (a.u.)^3
     number of atoms/cell      =           44
     number of atomic types    =            3
     number of electrons       =       136.00
     number of Kohn-Sham states=           82
     kinetic-energy cutoff     =      75.0000  Ry
     charge density cutoff     =     375.0000  Ry
     scf convergence threshold =      1.0E-08
     mixing beta               =       0.7000
     number of iterations used =            8  plain     mixing
     energy convergence thresh.=      1.0E-04
     force convergence thresh. =      1.0E-03
     Exchange-correlation= PBE
                           (   1   4   3   4   0   0   0)
     nstep                     =           50


     celldm(1)=  12.611352  celldm(2)=   0.000000  celldm(3)=   0.000000
     celldm(4)=   0.000000  celldm(5)=   0.000000  celldm(6)=   0.000000

     crystal axes: (cart. coord. in units of alat)
               a(1) = (   1.000000   0.000000   0.000000 )  
               a(2) = (   0.000000   1.000000   0.000000 )  
               a(3) = (   0.000000   0.000000   1.529227 )  

     reciprocal axes: (cart. coord. in units 2 pi/alat)
               b(1) = (  1.000000  0.000000  0.000000 )  
               b(2) = (  0.000000  1.000000  0.000000 )  
               b(3) = (  0.000000  0.000000  0.653925 )  


     PseudoPot. # 1 for Al read from file:
     /home/garima.iitr/.cache/.es/compmat/na5alh14/Al.pbe-n-kjpaw_psl.1.0.0.UPF
     MD5 check sum: 502b6b27b9c6270cab5dd1084b96fa6d
     Pseudo is Projector augmented-wave + core cor, Zval =  3.0
     Generated using &quot;atomic&quot; code by A. Dal Corso  v.6.3
     Shape of augmentation charge: PSQ
     Using radial grid of 1135 points,  6 beta functions with: 
                l(1) =   0
                l(2) =   0
                l(3) =   1
                l(4) =   1
                l(5) =   2
                l(6) =   2
     Q(r) pseudized with 0 coefficients 


     PseudoPot. # 2 for Na read from file:
     /home/garima.iitr/.cache/.es/compmat/na5alh14/na_pbe_v1.5.uspp.F.UPF
     MD5 check sum: 44600605ef58000f06b90626533354dc
     Pseudo is Ultrasoft, Zval =  9.0
     Generated by new atomic code, or converted to UPF format
     Using radial grid of  819 points,  5 beta functions with: 
                l(1) =   0
                l(2) =   0
                l(3) =   1
                l(4) =   1
                l(5) =   2
     Q(r) pseudized with  8 coefficients,  rinner =    1.250   1.250   1.250
                                                       1.250   1.250

     PseudoPot. # 3 for H  read from file:
     /home/garima.iitr/.cache/.es/compmat/na5alh14/H.pbe-rrkjus_psl.1.0.0.UPF
     MD5 check sum: 3f4114867bd07edc7f1424d066fc1888
     Pseudo is Ultrasoft, Zval =  1.0
     Generated using &quot;atomic&quot; code by A. Dal Corso  v.6.3MaX
     Using radial grid of  929 points,  2 beta functions with: 
                l(1) =   0
                l(2) =   0
     Q(r) pseudized with 0 coefficients 


     atomic species   valence    mass     pseudopotential
        Al             3.00    26.98100     Al( 1.00)
        Na             9.00    22.98900     Na( 1.00)
        H              1.00     1.00750     H ( 1.00)

     16 Sym. Ops., with inversion, found ( 8 have fractional translation)



   Cartesian axes

     site n.     atom                  positions (alat units)
         1           Al  tau(   1) = (   0.0000000   0.0000000   0.7646137  )
         2           Al  tau(   2) = (   0.5000000   0.5000000   0.0000000  )
         3           Al  tau(   3) = (   0.0000000   0.5000000   0.0000000  )
         4           Al  tau(   4) = (   0.5000000   0.0000000   0.7646137  )
         5           Al  tau(   5) = (   0.0000000   0.5000000   0.7646137  )
         6           Al  tau(   6) = (   0.5000000   0.0000000   0.0000000  )
         7           Na  tau(   7) = (   0.0000000   0.0000000   0.0000000  )
         8           Na  tau(   8) = (   0.5000000   0.5000000   0.7646137  )
         9           Na  tau(   9) = (   0.7873500   0.2873500   0.3823069  )
        10           Na  tau(  10) = (   0.7126500   0.7873500   0.3823069  )
        11           Na  tau(  11) = (   0.2126500   0.7126500   0.3823069  )
        12           Na  tau(  12) = (   0.7126500   0.7873500   1.1469206  )
        13           Na  tau(  13) = (   0.2126500   0.7126500   1.1469206  )
        14           Na  tau(  14) = (   0.2873500   0.2126500   0.3823069  )
        15           Na  tau(  15) = (   0.2873500   0.2126500   1.1469206  )
        16           Na  tau(  16) = (   0.7873500   0.2873500   1.1469206  )
        17           H   tau(  17) = (   0.0438000   0.3200500   0.1796995  )
        18           H   tau(  18) = (   0.4562000   0.8200500   0.5849142  )
        19           H   tau(  19) = (   0.1799500   0.4562000   0.5849142  )
        20           H   tau(  20) = (   0.4562000   0.8200500   0.9443133  )
        21           H   tau(  21) = (   0.1799500   0.4562000   0.9443133  )
        22           H   tau(  22) = (   0.9562000   0.6799500   0.1796995  )
        23           H   tau(  23) = (   0.3200500   0.9562000   0.1796995  )
        24           H   tau(  24) = (   0.9562000   0.6799500   1.3495280  )
        25           H   tau(  25) = (   0.3200500   0.9562000   1.3495280  )
        26           H   tau(  26) = (   0.6799500   0.0438000   0.1796995  )
        27           H   tau(  27) = (   0.0438000   0.3200500   1.3495280  )
        28           H   tau(  28) = (   0.6799500   0.0438000   1.3495280  )
        29           H   tau(  29) = (   0.5438000   0.1799500   0.5849142  )
        30           H   tau(  30) = (   0.8200500   0.5438000   0.5849142  )
        31           H   tau(  31) = (   0.5438000   0.1799500   0.9443133  )
        32           H   tau(  32) = (   0.8200500   0.5438000   0.9443133  )
        33           H   tau(  33) = (   0.0000000   0.0000000   0.5038652  )
        34           H   tau(  34) = (   0.5000000   0.5000000   0.2607486  )
        35           H   tau(  35) = (   0.5000000   0.5000000   1.2684789  )
        36           H   tau(  36) = (   0.0000000   0.0000000   1.0253623  )
        37           H   tau(  37) = (   0.2523700   0.5751200   0.0000000  )
        38           H   tau(  38) = (   0.2476300   0.0751200   0.7646137  )
        39           H   tau(  39) = (   0.9248800   0.2476300   0.7646137  )
        40           H   tau(  40) = (   0.7476300   0.4248800   0.0000000  )
        41           H   tau(  41) = (   0.5751200   0.7476300   0.0000000  )
        42           H   tau(  42) = (   0.4248800   0.2523700   0.0000000  )
        43           H   tau(  43) = (   0.7523700   0.9248800   0.7646137  )
        44           H   tau(  44) = (   0.0751200   0.7523700   0.7646137  )

     number of k points=    30  Marzari-Vanderbilt smearing, width (Ry)=  0.0050
                       cart. coord. in units 2pi/alat
        k(    1) = (   0.0000000   0.0000000   0.0000000), wk =   0.0138889
        k(    2) = (   0.0000000   0.0000000   0.1634812), wk =   0.0277778
        k(    3) = (   0.0000000   0.0000000  -0.3269625), wk =   0.0138889
        k(    4) = (   0.0000000   0.1666667   0.0000000), wk =   0.0555556
        k(    5) = (   0.0000000   0.1666667   0.1634812), wk =   0.1111111
        k(    6) = (   0.0000000   0.1666667  -0.3269625), wk =   0.0555556
        k(    7) = (   0.0000000   0.3333333   0.0000000), wk =   0.0555556
        k(    8) = (   0.0000000   0.3333333   0.1634812), wk =   0.1111111
        k(    9) = (   0.0000000   0.3333333  -0.3269625), wk =   0.0555556
        k(   10) = (   0.0000000  -0.5000000   0.0000000), wk =   0.0277778
        k(   11) = (   0.0000000  -0.5000000   0.1634812), wk =   0.0555556
        k(   12) = (   0.0000000  -0.5000000  -0.3269625), wk =   0.0277778
        k(   13) = (   0.1666667   0.1666667   0.0000000), wk =   0.0555556
        k(   14) = (   0.1666667   0.1666667   0.1634812), wk =   0.1111111
        k(   15) = (   0.1666667   0.1666667  -0.3269625), wk =   0.0555556
        k(   16) = (   0.1666667   0.3333333   0.0000000), wk =   0.1111111
        k(   17) = (   0.1666667   0.3333333   0.1634812), wk =   0.2222222
        k(   18) = (   0.1666667   0.3333333  -0.3269625), wk =   0.1111111
        k(   19) = (   0.1666667  -0.5000000   0.0000000), wk =   0.0555556
        k(   20) = (   0.1666667  -0.5000000   0.1634812), wk =   0.1111111
        k(   21) = (   0.1666667  -0.5000000  -0.3269625), wk =   0.0555556
        k(   22) = (   0.3333333   0.3333333   0.0000000), wk =   0.0555556
        k(   23) = (   0.3333333   0.3333333   0.1634812), wk =   0.1111111
        k(   24) = (   0.3333333   0.3333333  -0.3269625), wk =   0.0555556
        k(   25) = (   0.3333333  -0.5000000   0.0000000), wk =   0.0555556
        k(   26) = (   0.3333333  -0.5000000   0.1634812), wk =   0.1111111
        k(   27) = (   0.3333333  -0.5000000  -0.3269625), wk =   0.0555556
        k(   28) = (  -0.5000000  -0.5000000   0.0000000), wk =   0.0138889
        k(   29) = (  -0.5000000  -0.5000000   0.1634812), wk =   0.0277778
        k(   30) = (  -0.5000000  -0.5000000  -0.3269625), wk =   0.0138889

     Dense  grid:   375859 G-vectors     FFT dimensions: (  80,  80, 120)

     Smooth grid:   269139 G-vectors     FFT dimensions: (  72,  72, 108)

     Estimated max dynamical RAM per process >      33.32 MB

     Estimated total dynamical RAM >       4.51 GB

     Initial potential from superposition of free atoms

     starting charge     135.9231, renormalised to     136.0000
     Starting wfcs are  102 randomized atomic wfcs
     Checking if some PAW data can be deallocated... 

     total cpu time spent up to now is        1.5 secs

     Self-consistent Calculation

     iteration #  1     ecut=    75.00 Ry     beta= 0.70
     Davidson diagonalization with overlap
     ethr =  1.00E-02,  avg # of iterations =  5.4

     total cpu time spent up to now is        3.7 secs

     total energy              =   -1223.45200724 Ry
     estimated scf accuracy    <       1.96900079 Ry

     iteration #  2     ecut=    75.00 Ry     beta= 0.70
     Davidson diagonalization with overlap
     ethr =  1.45E-03,  avg # of iterations =  2.0

     total cpu time spent up to now is        5.4 secs

     total energy              =   -1223.62569799 Ry
     estimated scf accuracy    <       0.04181182 Ry

     iteration #  3     ecut=    75.00 Ry     beta= 0.70
     Davidson diagonalization with overlap
     ethr =  3.07E-05,  avg # of iterations = 11.4

     total cpu time spent up to now is        9.0 secs

     total energy              =   -1223.63852928 Ry
     estimated scf accuracy    <       0.00404889 Ry

     iteration #  4     ecut=    75.00 Ry     beta= 0.70
     Davidson diagonalization with overlap
     ethr =  2.98E-06,  avg # of iterations =  4.7

     total cpu time spent up to now is       11.6 secs

     total energy              =   -1223.63952347 Ry
     estimated scf accuracy    <       0.00027186 Ry

     iteration #  5     ecut=    75.00 Ry     beta= 0.70
     Davidson diagonalization with overlap
     ethr =  2.00E-07,  avg # of iterations =  2.7

     total cpu time spent up to now is       13.4 secs

     total energy              =   -1223.63958333 Ry
     estimated scf accuracy    <       0.00002012 Ry

     iteration #  6     ecut=    75.00 Ry     beta= 0.70
     Davidson diagonalization with overlap
     ethr =  1.48E-08,  avg # of iterations =  3.5

     total cpu time spent up to now is       15.3 secs

     total energy              =   -1223.63958684 Ry
     estimated scf accuracy    <       0.00000321 Ry

     iteration #  7     ecut=    75.00 Ry     beta= 0.70
     Davidson diagonalization with overlap
     ethr =  2.36E-09,  avg # of iterations =  2.0

     total cpu time spent up to now is       16.9 secs

     total energy              =   -1223.63958726 Ry
     estimated scf accuracy    <       0.00000009 Ry

     iteration #  8     ecut=    75.00 Ry     beta= 0.70
     Davidson diagonalization with overlap
     ethr =  6.38E-11,  avg # of iterations =  4.5

     total cpu time spent up to now is       19.2 secs

     total energy              =   -1223.63958730 Ry
     estimated scf accuracy    <       0.00000004 Ry

     iteration #  9     ecut=    75.00 Ry     beta= 0.70
     Davidson diagonalization with overlap
     ethr =  2.97E-11,  avg # of iterations =  2.0

     total cpu time spent up to now is       21.1 secs

     End of self-consistent calculation

          k = 0.0000 0.0000 0.0000 ( 33673 PWs)   bands (ev):

   -49.2091 -49.2091 -48.9020 -48.9020 -48.8992 -48.8992 -48.8992 -48.8992
   -48.8966 -48.8966 -21.1567 -21.1541 -21.1201 -21.1201 -21.1188 -21.1188
   -20.8753 -20.8741 -20.8611 -20.8611 -20.8610 -20.8610 -20.8609 -20.8606
   -20.8271 -20.8259 -20.8255 -20.8240 -20.8220 -20.8220 -20.8220 -20.8220
   -20.8031 -20.8031 -20.8029 -20.8029 -20.8013 -20.8009 -20.7998 -20.7998
    -6.1150  -5.8057  -4.1024  -3.8516  -2.7681  -2.6266  -2.6174  -2.5039
    -2.5039  -2.3281  -2.3281  -1.1234  -1.0139  -0.8323  -0.8323  -0.7335
    -0.6553  -0.6553  -0.2534  -0.1152   0.3221   0.7124   0.7124   0.9209
     1.1659   1.3816   1.3816   1.6210   4.4992   5.3372   6.3490   6.3490
     6.4029   6.5168   6.5852   7.0336   7.0336   7.0469   7.1639   7.2422
     7.2422   7.5327

          k = 0.0000 0.0000 0.1635 ( 33689 PWs)   bands (ev):

   -49.2091 -49.2091 -48.9020 -48.9020 -48.8992 -48.8992 -48.8992 -48.8992
   -48.8966 -48.8966 -21.1563 -21.1545 -21.1199 -21.1199 -21.1190 -21.1190
   -20.8751 -20.8743 -20.8611 -20.8611 -20.8610 -20.8610 -20.8609 -20.8607
   -20.8267 -20.8258 -20.8255 -20.8244 -20.8220 -20.8220 -20.8220 -20.8220
   -20.8031 -20.8031 -20.8029 -20.8029 -20.8013 -20.8010 -20.7998 -20.7998
    -6.0754  -5.8579  -4.0702  -3.8937  -2.7953  -2.6682  -2.4793  -2.4793
    -2.3937  -2.3550  -2.3550  -1.3754  -0.8962  -0.8152  -0.8152  -0.7417
    -0.6933  -0.6933  -0.3471  -0.2719   0.6479   0.8234   0.8234   0.9786
     1.1426   1.2939   1.2939   1.5047   4.6187   5.3260   6.2904   6.2904
     6.2958   6.5313   6.5877   6.6354   6.6354   6.9615   7.3081   7.7530
     7.7685   7.7686

          k = 0.0000 0.0000-0.3270 ( 33734 PWs)   bands (ev):

   -49.2091 -49.2091 -48.9020 -48.9020 -48.8992 -48.8992 -48.8992 -48.8992
   -48.8966 -48.8966 -21.1554 -21.1554 -21.1194 -21.1194 -21.1194 -21.1194
   -20.8747 -20.8747 -20.8611 -20.8611 -20.8611 -20.8611 -20.8608 -20.8608
   -20.8257 -20.8257 -20.8256 -20.8256 -20.8220 -20.8220 -20.8220 -20.8220
   -20.8030 -20.8030 -20.8030 -20.8030 -20.8011 -20.8011 -20.7998 -20.7998
    -5.9729  -5.9729  -3.9868  -3.9868  -2.7504  -2.7504  -2.4184  -2.4184
    -2.4184  -2.4184  -1.9222  -1.9222  -0.7640  -0.7640  -0.7640  -0.7640
    -0.6008  -0.6008  -0.5599  -0.5599   1.0695   1.0695   1.0695   1.0695
     1.0751   1.0751   1.1522   1.1522   4.9797   4.9797   6.3415   6.3415
     6.3415   6.3415   6.4656   6.4656   6.7683   6.7683   7.3321   7.3321
     8.1360   8.1360

          k = 0.0000 0.1667 0.0000 ( 33695 PWs)   bands (ev):

   -49.2091 -49.2091 -48.9018 -48.9018 -48.8994 -48.8994 -48.8990 -48.8990
   -48.8968 -48.8968 -21.1565 -21.1543 -21.1200 -21.1200 -21.1189 -21.1188
   -20.8737 -20.8726 -20.8619 -20.8619 -20.8604 -20.8603 -20.8557 -20.8556
   -20.8273 -20.8269 -20.8264 -20.8234 -20.8231 -20.8230 -20.8213 -20.8213
   -20.8064 -20.8063 -20.8031 -20.8029 -20.8028 -20.8027 -20.8004 -20.8003
    -6.0436  -5.7457  -4.2779  -4.0221  -3.1118  -2.9897  -2.5461  -2.4574
    -2.3028  -1.8578  -1.7189  -1.2242  -1.0334  -0.9348  -0.8908  -0.7601
    -0.7320  -0.7230  -0.3214  -0.1710   0.4076   0.7549   0.8270   0.9053
     1.1404   1.3708   1.3784   1.5560   4.7156   5.5146   6.3052   6.3382
     6.3461   6.3698   6.7605   6.7642   6.9520   7.0359   7.1717   7.2436
     7.3131   7.5850

          k = 0.0000 0.1667 0.1635 ( 33667 PWs)   bands (ev):

   -49.2091 -49.2091 -48.9018 -48.9018 -48.8994 -48.8994 -48.8990 -48.8990
   -48.8968 -48.8968 -21.1562 -21.1546 -21.1199 -21.1198 -21.1190 -21.1190
   -20.8736 -20.8728 -20.8619 -20.8619 -20.8604 -20.8603 -20.8557 -20.8557
   -20.8273 -20.8270 -20.8259 -20.8239 -20.8231 -20.8230 -20.8213 -20.8213
   -20.8064 -20.8063 -20.8031 -20.8029 -20.8028 -20.8027 -20.8004 -20.8003
    -6.0052  -5.7955  -4.2457  -4.0657  -3.1111  -3.0180  -2.4353  -2.3625
    -2.3254  -1.8340  -1.7515  -1.3783  -1.0207  -0.9246  -0.8554  -0.8132
    -0.7868  -0.6824  -0.3690  -0.3230   0.6368   0.8426   0.9515   0.9632
     1.1216   1.2204   1.2976   1.5383   4.8254   5.4985   6.1728   6.2462
     6.3079   6.4349   6.6916   6.7114   6.7992   6.8539   7.2562   7.2769
     7.5294   7.9143

          k = 0.0000 0.1667-0.3270 ( 33654 PWs)   bands (ev):

   -49.2091 -49.2091 -48.9018 -48.9018 -48.8994 -48.8994 -48.8990 -48.8990
   -48.8968 -48.8968 -21.1554 -21.1554 -21.1194 -21.1194 -21.1194 -21.1194
   -20.8732 -20.8732 -20.8619 -20.8619 -20.8603 -20.8603 -20.8557 -20.8557
   -20.8271 -20.8271 -20.8249 -20.8249 -20.8230 -20.8230 -20.8213 -20.8213
   -20.8064 -20.8064 -20.8030 -20.8030 -20.8028 -20.8028 -20.8004 -20.8004
    -5.9060  -5.9060  -4.1612  -4.1612  -3.0758  -3.0758  -2.3810  -2.3810
    -1.9416  -1.9416  -1.7505  -1.7505  -0.9137  -0.9137  -0.8582  -0.8582
    -0.6670  -0.6670  -0.4927  -0.4927   0.9325   0.9325   1.0283   1.0283
     1.0904   1.0904   1.3263   1.3263   5.1533   5.1533   6.2156   6.2156
     6.4066   6.4066   6.5627   6.5627   6.8130   6.8130   7.2199   7.2199
     7.9184   7.9184

          k = 0.0000 0.3333 0.0000 ( 33637 PWs)   bands (ev):

   -49.2091 -49.2091 -48.9013 -48.9013 -48.8999 -48.8999 -48.8985 -48.8985
   -48.8973 -48.8973 -21.1560 -21.1547 -21.1198 -21.1198 -21.1192 -21.1191
   -20.8706 -20.8698 -20.8641 -20.8640 -20.8531 -20.8529 -20.8463 -20.8461
   -20.8323 -20.8320 -20.8269 -20.8267 -20.8241 -20.8218 -20.8191 -20.8191
   -20.8138 -20.8134 -20.8090 -20.8089 -20.8023 -20.8022 -20.8009 -20.8008
    -5.8445  -5.6054  -4.6518  -4.4336  -3.2203  -3.1484  -2.3458  -2.3374
    -2.2439  -1.6031  -1.2686  -1.1458  -1.1435  -0.9558  -0.9113  -0.7332
    -0.6403  -0.6314  -0.4979  -0.3096   0.4332   0.7053   0.8569   0.9698
     1.0747   1.3589   1.3746   1.3831   5.2523   5.9147   6.0383   6.2190
     6.2649   6.3574   6.6211   6.7049   6.7851   7.2475   7.3161   7.4551
     7.6513   7.7294

          k = 0.0000 0.3333 0.1635 ( 33632 PWs)   bands (ev):

   -49.2091 -49.2091 -48.9013 -48.9013 -48.8999 -48.8999 -48.8985 -48.8985
   -48.8973 -48.8973 -21.1559 -21.1549 -21.1197 -21.1197 -21.1192 -21.1192
   -20.8705 -20.8699 -20.8641 -20.8640 -20.8530 -20.8529 -20.8463 -20.8462
   -20.8323 -20.8320 -20.8269 -20.8267 -20.8238 -20.8221 -20.8191 -20.8191
   -20.8137 -20.8134 -20.8090 -20.8089 -20.8023 -20.8022 -20.8009 -20.8008
    -5.8115  -5.6421  -4.6304  -4.4756  -3.2177  -3.1638  -2.3302  -2.2590
    -2.1707  -1.5483  -1.2546  -1.1741  -1.1389  -1.1293  -0.9546  -0.8190
    -0.6653  -0.5504  -0.4862  -0.3926   0.5396   0.7325   0.8977   0.9605
     1.1356   1.1372   1.3596   1.5428   5.3510   5.9120   6.1092   6.1574
     6.2725   6.3732   6.3844   6.5388   6.9865   7.1678   7.4059   7.4333
     7.7184   7.9863

          k = 0.0000 0.3333-0.3270 ( 33628 PWs)   bands (ev):

   -49.2091 -49.2091 -48.9013 -48.9013 -48.8999 -48.8999 -48.8985 -48.8985
   -48.8973 -48.8973 -21.1554 -21.1554 -21.1195 -21.1195 -21.1194 -21.1194
   -20.8702 -20.8702 -20.8640 -20.8640 -20.8530 -20.8530 -20.8462 -20.8462
   -20.8322 -20.8322 -20.8268 -20.8268 -20.8230 -20.8230 -20.8191 -20.8191
   -20.8135 -20.8135 -20.8090 -20.8090 -20.8022 -20.8022 -20.8008 -20.8008
    -5.7287  -5.7287  -4.5630  -4.5630  -3.1962  -3.1962  -2.2935  -2.2935
    -1.7816  -1.7816  -1.2262  -1.2262  -1.1336  -1.1336  -0.9906  -0.9906
    -0.6429  -0.6429  -0.4046  -0.4046   0.6858   0.6858   0.9276   0.9276
     1.0997   1.0997   1.4962   1.4962   5.6207   5.6207   6.0519   6.0519
     6.3995   6.3995   6.6930   6.6930   6.7652   6.7652   7.4919   7.4919
     7.8849   7.8849

          k = 0.0000-0.5000 0.0000 ( 33654 PWs)   bands (ev):

   -49.2091 -49.2091 -48.9006 -48.9006 -48.9006 -48.9006 -48.8979 -48.8979
   -48.8979 -48.8979 -21.1554 -21.1554 -21.1195 -21.1195 -21.1194 -21.1194
   -20.8672 -20.8672 -20.8668 -20.8668 -20.8419 -20.8419 -20.8416 -20.8416
   -20.8353 -20.8353 -20.8351 -20.8351 -20.8202 -20.8202 -20.8188 -20.8188
   -20.8151 -20.8151 -20.8151 -20.8151 -20.8015 -20.8015 -20.8015 -20.8015
    -5.6079  -5.6079  -4.7621  -4.7621  -3.1986  -3.1986  -2.2439  -2.2439
    -2.0093  -2.0093  -1.2699  -1.2699  -1.0638  -1.0638  -0.7163  -0.7163
    -0.4791  -0.4791  -0.1373  -0.1373   0.2096   0.2096   0.9588   0.9588
     1.1843   1.1843   1.3688   1.3688   5.7987   5.7987   6.0278   6.0278
     6.2691   6.2691   6.8333   6.8333   7.2160   7.2160   7.3536   7.3536
     7.8108   7.8110

          k = 0.0000-0.5000 0.1635 ( 33644 PWs)   bands (ev):

   -49.2091 -49.2091 -48.9006 -48.9006 -48.9006 -48.9006 -48.8979 -48.8979
   -48.8979 -48.8979 -21.1554 -21.1554 -21.1195 -21.1195 -21.1194 -21.1194
   -20.8673 -20.8673 -20.8668 -20.8668 -20.8418 -20.8418 -20.8417 -20.8417
   -20.8352 -20.8352 -20.8351 -20.8351 -20.8203 -20.8203 -20.8188 -20.8188
   -20.8152 -20.8152 -20.8149 -20.8149 -20.8016 -20.8016 -20.8015 -20.8015
    -5.5995  -5.5995  -4.7829  -4.7829  -3.2017  -3.2017  -2.2424  -2.2424
    -1.8795  -1.8795  -1.2667  -1.2667  -1.1480  -1.1480  -0.8275  -0.8275
    -0.5113  -0.5113  -0.0353  -0.0353   0.1959   0.1959   0.9338   0.9338
     1.1262   1.1262   1.4776   1.4776   5.8680   5.8680   6.1039   6.1039
     6.2409   6.2409   6.6351   6.6351   7.0668   7.0669   7.5819   7.5819
     8.0012   8.0016

          k = 0.0000-0.5000-0.3270 ( 33572 PWs)   bands (ev):

   -49.2091 -49.2091 -48.9006 -48.9006 -48.9006 -48.9006 -48.8979 -48.8979
   -48.8979 -48.8979 -21.1554 -21.1554 -21.1195 -21.1195 -21.1194 -21.1194
   -20.8673 -20.8673 -20.8668 -20.8668 -20.8418 -20.8418 -20.8417 -20.8417
   -20.8352 -20.8352 -20.8351 -20.8351 -20.8203 -20.8203 -20.8187 -20.8187
   -20.8153 -20.8153 -20.8149 -20.8149 -20.8016 -20.8016 -20.8014 -20.8014
    -5.5907  -5.5907  -4.8039  -4.8039  -3.2043  -3.2043  -2.2406  -2.2406
    -1.6921  -1.6921  -1.2625  -1.2625  -1.2171  -1.2171  -1.0668  -1.0668
    -0.4478  -0.4478   0.0496   0.0496   0.1649   0.1649   0.8901   0.8901
     1.1063   1.1063   1.5594   1.5594   5.9237   5.9237   6.0860   6.0860
     6.3185   6.3185   6.7100   6.7100   6.7915   6.7915   7.8240   7.8241
     7.9114   7.9114

          k = 0.1667 0.1667 0.0000 ( 33661 PWs)   bands (ev):

   -49.2091 -49.2091 -48.9016 -48.9016 -48.8992 -48.8992 -48.8992 -48.8992
   -48.8970 -48.8970 -21.1564 -21.1544 -21.1201 -21.1198 -21.1191 -21.1188
   -20.8718 -20.8707 -20.8614 -20.8613 -20.8580 -20.8580 -20.8541 -20.8539
   -20.8286 -20.8282 -20.8256 -20.8229 -20.8229 -20.8226 -20.8220 -20.8220
   -20.8066 -20.8064 -20.8062 -20.8061 -20.8028 -20.8028 -20.8027 -20.8025
    -5.9716  -5.6832  -4.3658  -4.0985  -3.4569  -3.3580  -2.4756  -2.0372
    -1.9182  -1.6852  -1.5990  -1.1871  -1.1666  -1.1248  -1.0892  -0.7244
    -0.6543  -0.6209  -0.3952  -0.2134   0.4489   0.7825   0.8784   0.8848
     1.0815   1.3123   1.4830   1.4918   4.8742   5.6246   6.1953   6.3100
     6.3664   6.3898   6.7726   6.8207   6.9051   6.9492   7.0190   7.1002
     7.1749   7.7796

          k = 0.1667 0.1667 0.1635 ( 33683 PWs)   bands (ev):

   -49.2091 -49.2091 -48.9016 -48.9016 -48.8992 -48.8992 -48.8992 -48.8992
   -48.8970 -48.8970 -21.1561 -21.1547 -21.1199 -21.1197 -21.1192 -21.1190
   -20.8716 -20.8709 -20.8613 -20.8613 -20.8580 -20.8580 -20.8540 -20.8539
   -20.8285 -20.8282 -20.8252 -20.8234 -20.8228 -20.8227 -20.8220 -20.8220
   -20.8066 -20.8065 -20.8062 -20.8061 -20.8028 -20.8028 -20.8027 -20.8026
    -5.9342  -5.7312  -4.3315  -4.1435  -3.4535  -3.3799  -2.3032  -2.0197
    -1.9346  -1.6711  -1.6176  -1.4294  -1.1188  -1.0597  -1.0079  -0.7923
    -0.6636  -0.6386  -0.4122  -0.3758   0.5915   0.8688   0.8939   0.9933
     1.0614   1.2161   1.4166   1.5078   4.9757   5.5826   6.0854   6.3131
     6.4391   6.5064   6.5384   6.7978   6.9017   6.9222   6.9559   7.1860
     7.3275   7.9192

          k = 0.1667 0.1667-0.3270 ( 33648 PWs)   bands (ev):

   -49.2091 -49.2091 -48.9016 -48.9016 -48.8992 -48.8992 -48.8992 -48.8992
   -48.8970 -48.8970 -21.1554 -21.1554 -21.1194 -21.1194 -21.1194 -21.1194
   -20.8712 -20.8712 -20.8613 -20.8613 -20.8580 -20.8580 -20.8540 -20.8540
   -20.8284 -20.8284 -20.8243 -20.8243 -20.8227 -20.8227 -20.8220 -20.8220
   -20.8065 -20.8065 -20.8061 -20.8061 -20.8028 -20.8028 -20.8026 -20.8026
    -5.8379  -5.8379  -4.2428  -4.2428  -3.4250  -3.4250  -1.9801  -1.9801
    -1.8825  -1.8825  -1.6329  -1.6329  -1.1302  -1.1302  -0.7677  -0.7677
    -0.6452  -0.6452  -0.5398  -0.5398   0.7476   0.7476   1.0081   1.0081
     1.2671   1.2671   1.3229   1.3229   5.2612   5.2612   6.2459   6.2459
     6.4819   6.4819   6.6255   6.6255   6.8904   6.8904   7.0419   7.0419
     7.6742   7.6742

          k = 0.1667 0.3333 0.0000 ( 33641 PWs)   bands (ev):

   -49.2091 -49.2091 -48.9011 -48.9011 -48.8997 -48.8997 -48.8987 -48.8987
   -48.8975 -48.8974 -21.1559 -21.1548 -21.1200 -21.1195 -21.1194 -21.1189
   -20.8679 -20.8672 -20.8616 -20.8614 -20.8523 -20.8522 -20.8459 -20.8457
   -20.8331 -20.8327 -20.8266 -20.8263 -20.8234 -20.8214 -20.8201 -20.8200
   -20.8136 -20.8131 -20.8098 -20.8096 -20.8049 -20.8049 -20.8033 -20.8032
    -5.7701  -5.5337  -4.6499  -4.4168  -3.6526  -3.5984  -2.2696  -1.8715
    -1.7769  -1.5496  -1.5485  -1.3783  -1.0337  -0.9382  -0.7352  -0.6413
    -0.6376  -0.5880  -0.5335  -0.3279   0.4493   0.6824   0.8199   0.8904
     0.9824   1.3113   1.4076   1.5414   5.2600   5.8174   5.9509   6.0759
     6.3510   6.4892   6.5307   6.5573   6.8185   7.2891   7.3547   7.4146
     7.6758   7.7003

          k = 0.1667 0.3333 0.1635 ( 33628 PWs)   bands (ev):

   -49.2091 -49.2091 -48.9011 -48.9011 -48.8997 -48.8997 -48.8987 -48.8987
   -48.8974 -48.8974 -21.1558 -21.1550 -21.1199 -21.1195 -21.1194 -21.1191
   -20.8678 -20.8673 -20.8615 -20.8614 -20.8523 -20.8522 -20.8459 -20.8457
   -20.8330 -20.8328 -20.8266 -20.8264 -20.8231 -20.8217 -20.8201 -20.8200
   -20.8135 -20.8131 -20.8097 -20.8097 -20.8049 -20.8049 -20.8033 -20.8033
    -5.7376  -5.5701  -4.6242  -4.4593  -3.6511  -3.6107  -2.1218  -1.8772
    -1.7807  -1.6274  -1.4516  -1.3485  -1.0797  -0.9356  -0.7750  -0.7557
    -0.6756  -0.5380  -0.4757  -0.4629   0.4980   0.6866   0.7572   0.8403
     1.1061   1.3111   1.4446   1.5394   5.3612   5.7712   6.0723   6.2316
     6.2799   6.3445   6.4472   6.6808   6.9649   7.2298   7.3269   7.4268
     7.5133   7.6879

          k = 0.1667 0.3333-0.3270 ( 33656 PWs)   bands (ev):

   -49.2091 -49.2091 -48.9011 -48.9011 -48.8997 -48.8997 -48.8987 -48.8987
   -48.8974 -48.8974 -21.1554 -21.1554 -21.1195 -21.1195 -21.1194 -21.1194
   -20.8676 -20.8676 -20.8615 -20.8615 -20.8523 -20.8522 -20.8458 -20.8458
   -20.8329 -20.8329 -20.8265 -20.8265 -20.8225 -20.8223 -20.8201 -20.8200
   -20.8133 -20.8133 -20.8097 -20.8097 -20.8049 -20.8049 -20.8033 -20.8033
    -5.6559  -5.6559  -4.5502  -4.5496  -3.6371  -3.6346  -1.8999  -1.8778
    -1.7530  -1.7011  -1.4828  -1.3453  -1.0310  -0.9993  -0.9278  -0.7321
    -0.6935  -0.5781  -0.4687  -0.4494   0.5449   0.5540   0.7813   0.8063
     1.2874   1.3001   1.4635   1.5016   5.5705   5.5920   6.1208   6.2187
     6.3747   6.4643   6.6201   6.8052   6.8400   6.8707   7.3343   7.3679
     7.6102   7.7063

          k = 0.1667-0.5000 0.0000 ( 33614 PWs)   bands (ev):

   -49.2091 -49.2091 -48.9004 -48.9004 -48.9004 -48.9004 -48.8981 -48.8981
   -48.8981 -48.8981 -21.1554 -21.1554 -21.1198 -21.1198 -21.1192 -21.1192
   -20.8644 -20.8644 -20.8639 -20.8639 -20.8420 -20.8420 -20.8417 -20.8417
   -20.8351 -20.8351 -20.8349 -20.8349 -20.8198 -20.8198 -20.8185 -20.8185
   -20.8159 -20.8159 -20.8157 -20.8157 -20.8042 -20.8042 -20.8041 -20.8041
    -5.5283  -5.5283  -4.7427  -4.7427  -3.6523  -3.6523  -1.9463  -1.9463
    -1.8131  -1.8131  -1.5250  -1.5250  -0.8239  -0.8239  -0.7137  -0.7137
    -0.4863  -0.4863  -0.1015  -0.1015   0.1909   0.1909   0.8555   0.8555
     1.1010   1.1010   1.5170   1.5170   5.6567   5.6567   5.8744   5.8744
     6.4352   6.4352   6.6475   6.6475   7.0586   7.0586   7.3347   7.3347
     7.8531   7.8531

          k = 0.1667-0.5000 0.1635 ( 33622 PWs)   bands (ev):

   -49.2091 -49.2091 -48.9004 -48.9004 -48.9004 -48.9004 -48.8981 -48.8981
   -48.8981 -48.8981 -21.1554 -21.1554 -21.1197 -21.1197 -21.1192 -21.1192
   -20.8644 -20.8644 -20.8639 -20.8639 -20.8419 -20.8419 -20.8418 -20.8418
   -20.8351 -20.8351 -20.8349 -20.8349 -20.8198 -20.8198 -20.8185 -20.8185
   -20.8160 -20.8160 -20.8157 -20.8157 -20.8042 -20.8042 -20.8041 -20.8041
    -5.5197  -5.5197  -4.7617  -4.7617  -3.6558  -3.6558  -1.9100  -1.9100
    -1.7460  -1.7460  -1.5167  -1.5167  -0.8990  -0.8990  -0.7092  -0.7092
    -0.5939  -0.5939  -0.0159  -0.0159   0.1746   0.1746   0.7208   0.7208
     1.2258   1.2258   1.5324   1.5324   5.7593   5.7593   5.9963   5.9963
     6.3094   6.3094   6.6490   6.6490   6.9997   6.9997   7.4849   7.4849
     7.8083   7.8085

          k = 0.1667-0.5000-0.3270 ( 33612 PWs)   bands (ev):

   -49.2091 -49.2091 -48.9004 -48.9004 -48.9004 -48.9004 -48.8981 -48.8981
   -48.8981 -48.8981 -21.1554 -21.1554 -21.1195 -21.1195 -21.1194 -21.1194
   -20.8644 -20.8644 -20.8639 -20.8639 -20.8419 -20.8419 -20.8418 -20.8418
   -20.8350 -20.8350 -20.8349 -20.8349 -20.8198 -20.8198 -20.8185 -20.8185
   -20.8160 -20.8160 -20.8157 -20.8157 -20.8042 -20.8042 -20.8041 -20.8041
    -5.5107  -5.5107  -4.7808  -4.7808  -3.6588  -3.6588  -1.9110  -1.9110
    -1.6545  -1.6545  -1.3331  -1.3331  -1.2159  -1.2159  -0.7610  -0.7610
    -0.5204  -0.5204   0.0578   0.0578   0.1318   0.1318   0.6216   0.6216
     1.3018   1.3018   1.5539   1.5539   5.9252   5.9252   5.9992   5.9992
     6.3470   6.3470   6.6259   6.6259   6.9055   6.9055   7.5505   7.5505
     7.7831   7.7832

          k = 0.3333 0.3333 0.0000 ( 33684 PWs)   bands (ev):

   -49.2091 -49.2091 -48.9006 -48.9006 -48.8993 -48.8993 -48.8992 -48.8992
   -48.8979 -48.8979 -21.1557 -21.1550 -21.1201 -21.1198 -21.1192 -21.1189
   -20.8621 -20.8615 -20.8562 -20.8558 -20.8509 -20.8508 -20.8419 -20.8418
   -20.8364 -20.8361 -20.8263 -20.8260 -20.8232 -20.8227 -20.8207 -20.8194
   -20.8149 -20.8142 -20.8122 -20.8119 -20.8103 -20.8098 -20.8079 -20.8077
    -5.5591  -5.3447  -4.7102  -4.4223  -4.1614  -4.1209  -2.0718  -1.9096
    -1.8850  -1.4483  -1.3064  -1.0741  -0.9300  -0.8288  -0.6403  -0.5752
    -0.5703  -0.4389  -0.3903  -0.3723   0.4283   0.6661   0.6722   0.7558
     0.7603   1.0952   1.6068   1.6959   5.3026   5.5133   5.6993   5.8186
     6.2836   6.2938   6.6280   6.9027   7.0255   7.1786   7.2348   7.3411
     7.8187   7.8925

          k = 0.3333 0.3333 0.1635 ( 33624 PWs)   bands (ev):

   -49.2091 -49.2091 -48.9006 -48.9006 -48.8993 -48.8993 -48.8992 -48.8992
   -48.8979 -48.8979 -21.1556 -21.1551 -21.1199 -21.1197 -21.1193 -21.1190
   -20.8620 -20.8616 -20.8561 -20.8559 -20.8509 -20.8508 -20.8419 -20.8418
   -20.8364 -20.8361 -20.8262 -20.8260 -20.8231 -20.8228 -20.8206 -20.8197
   -20.8148 -20.8142 -20.8122 -20.8120 -20.8102 -20.8099 -20.8079 -20.8077
    -5.5292  -5.3774  -4.6734  -4.4711  -4.1601  -4.1338  -2.0426  -1.9815
    -1.7922  -1.3190  -1.2115  -1.0398  -0.9726  -0.8045  -0.7181  -0.6361
    -0.6001  -0.5070  -0.4373  -0.3868   0.3968   0.4962   0.5743   0.6799
     1.0137   1.2220   1.6163   1.6751   5.4438   5.6101   5.8641   5.9474
     6.1547   6.3490   6.6691   6.8246   7.0138   7.2573   7.3597   7.3951
     7.5978   7.6972

          k = 0.3333 0.3333-0.3270 ( 33598 PWs)   bands (ev):

   -49.2091 -49.2091 -48.9006 -48.9006 -48.8993 -48.8993 -48.8992 -48.8992
   -48.8979 -48.8979 -21.1554 -21.1554 -21.1195 -21.1195 -21.1195 -21.1195
   -20.8618 -20.8618 -20.8560 -20.8560 -20.8508 -20.8508 -20.8418 -20.8418
   -20.8362 -20.8362 -20.8261 -20.8261 -20.8229 -20.8229 -20.8201 -20.8201
   -20.8145 -20.8145 -20.8121 -20.8121 -20.8100 -20.8100 -20.8078 -20.8078
    -5.4548  -5.4548  -4.5781  -4.5781  -4.1524  -4.1524  -2.0442  -2.0442
    -1.4360  -1.4360  -1.0704  -1.0704  -0.9304  -0.9304  -0.7557  -0.7557
    -0.5442  -0.5442  -0.4213  -0.4213   0.3041   0.3041   0.6342   0.6342
     1.2328   1.2328   1.6367   1.6367   5.6582   5.6582   6.0225   6.0225
     6.3430   6.3430   6.7003   6.7003   7.0145   7.0145   7.4045   7.4045
     7.5760   7.5760

          k = 0.3333-0.5000 0.0000 ( 33646 PWs)   bands (ev):

   -49.2091 -49.2091 -48.8999 -48.8999 -48.8999 -48.8999 -48.8986 -48.8986
   -48.8986 -48.8986 -21.1554 -21.1554 -21.1200 -21.1200 -21.1190 -21.1190
   -20.8572 -20.8572 -20.8568 -20.8568 -20.8435 -20.8435 -20.8432 -20.8432
   -20.8333 -20.8333 -20.8332 -20.8332 -20.8202 -20.8202 -20.8197 -20.8197
   -20.8170 -20.8170 -20.8165 -20.8165 -20.8101 -20.8101 -20.8097 -20.8097
    -5.2952  -5.2952  -4.7155  -4.7155  -4.2638  -4.2638  -2.0108  -2.0108
    -1.7656  -1.7656  -1.1144  -1.1144  -0.8415  -0.8415  -0.4605  -0.4605
    -0.3977  -0.3977  -0.0299  -0.0299   0.1437   0.1437   0.7163   0.7163
     0.8370   0.8370   1.7259   1.7259   5.3771   5.3771   5.5324   5.5324
     6.4566   6.4566   6.7627   6.7627   6.9164   6.9164   7.5692   7.5693
     7.9392   7.9392

          k = 0.3333-0.5000 0.1635 ( 33640 PWs)   bands (ev):

   -49.2091 -49.2091 -48.8999 -48.8999 -48.8999 -48.8999 -48.8986 -48.8986
   -48.8986 -48.8986 -21.1554 -21.1554 -21.1199 -21.1199 -21.1191 -21.1191
   -20.8572 -20.8572 -20.8568 -20.8568 -20.8434 -20.8434 -20.8432 -20.8432
   -20.8333 -20.8333 -20.8332 -20.8332 -20.8202 -20.8202 -20.8197 -20.8197
   -20.8171 -20.8171 -20.8164 -20.8164 -20.8100 -20.8100 -20.8098 -20.8098
    -5.2862  -5.2862  -4.7233  -4.7233  -4.2770  -4.2770  -2.0940  -2.0940
    -1.5829  -1.5829  -1.0260  -1.0260  -0.8172  -0.8172  -0.6720  -0.6720
    -0.4086  -0.4086   0.0262   0.0262   0.1061   0.1061   0.4676   0.4676
     1.0641   1.0641   1.7224   1.7224   5.5432   5.5432   5.7046   5.7046
     6.2966   6.2966   6.7787   6.7787   7.0334   7.0334   7.4407   7.4407
     7.7632   7.7632

          k = 0.3333-0.5000-0.3270 ( 33628 PWs)   bands (ev):

   -49.2091 -49.2091 -48.8999 -48.8999 -48.8999 -48.8999 -48.8986 -48.8986
   -48.8986 -48.8986 -21.1554 -21.1554 -21.1195 -21.1195 -21.1195 -21.1195
   -20.8572 -20.8572 -20.8569 -20.8569 -20.8433 -20.8433 -20.8433 -20.8433
   -20.8333 -20.8333 -20.8332 -20.8332 -20.8201 -20.8201 -20.8198 -20.8198
   -20.8171 -20.8171 -20.8163 -20.8163 -20.8100 -20.8100 -20.8099 -20.8099
    -5.2768  -5.2768  -4.7319  -4.7319  -4.2895  -4.2895  -2.1499  -2.1499
    -1.2631  -1.2631  -1.1398  -1.1398  -0.8821  -0.8821  -0.6895  -0.6895
    -0.4375  -0.4375   0.0064   0.0064   0.0738   0.0738   0.3575   0.3575
     1.1750   1.1750   1.7181   1.7181   5.8286   5.8286   5.8935   5.8935
     6.1046   6.1046   6.7421   6.7421   7.1007   7.1007   7.3324   7.3324
     7.5878   7.5878

          k =-0.5000-0.5000 0.0000 ( 33664 PWs)   bands (ev):

   -49.2091 -49.2091 -48.8993 -48.8993 -48.8993 -48.8993 -48.8992 -48.8992
   -48.8992 -48.8992 -21.1553 -21.1553 -21.1201 -21.1201 -21.1189 -21.1189
   -20.8514 -20.8514 -20.8508 -20.8508 -20.8464 -20.8464 -20.8462 -20.8462
   -20.8305 -20.8305 -20.8304 -20.8304 -20.8238 -20.8238 -20.8234 -20.8234
   -20.8154 -20.8154 -20.8150 -20.8150 -20.8144 -20.8144 -20.8129 -20.8129
    -5.0048  -5.0048  -4.8411  -4.8411  -4.5456  -4.5456  -2.1336  -2.1336
    -1.5546  -1.5546  -1.3793  -1.3793  -0.4400  -0.4400  -0.3626  -0.3626
    -0.1837  -0.1837  -0.0873  -0.0873   0.1158   0.1158   0.5740   0.5740
     0.6570   0.6570   1.8113   1.8113   5.2691   5.2691   5.3178   5.3178
     6.4233   6.4233   6.7893   6.7894   7.5171   7.5442   7.5442   7.6662
     7.6674   7.7499

          k =-0.5000-0.5000 0.1635 ( 33624 PWs)   bands (ev):

   -49.2091 -49.2091 -48.8993 -48.8993 -48.8993 -48.8993 -48.8992 -48.8992
   -48.8992 -48.8992 -21.1553 -21.1553 -21.1199 -21.1199 -21.1191 -21.1191
   -20.8513 -20.8513 -20.8509 -20.8509 -20.8463 -20.8463 -20.8462 -20.8462
   -20.8305 -20.8305 -20.8304 -20.8304 -20.8237 -20.8237 -20.8234 -20.8234
   -20.8154 -20.8154 -20.8151 -20.8151 -20.8143 -20.8143 -20.8130 -20.8130
    -5.0034  -5.0034  -4.8035  -4.8035  -4.5957  -4.5957  -2.2080  -2.2080
    -1.4178  -1.4178  -1.2045  -1.2045  -0.6687  -0.6687  -0.3552  -0.3552
    -0.1933  -0.1933  -0.0006  -0.0006   0.1077   0.1077   0.1992   0.1992
     0.9192   0.9192   1.8084   1.8084   5.4531   5.4531   5.5192   5.5192
     6.2718   6.2718   6.8934   6.8934   7.1170   7.1170   7.6918   7.6918
     7.7630   7.7630

          k =-0.5000-0.5000-0.3270 ( 33616 PWs)   bands (ev):

   -49.2091 -49.2091 -48.8993 -48.8993 -48.8993 -48.8993 -48.8992 -48.8992
   -48.8992 -48.8992 -21.1553 -21.1553 -21.1195 -21.1195 -21.1195 -21.1195
   -20.8512 -20.8512 -20.8510 -20.8510 -20.8463 -20.8463 -20.8463 -20.8463
   -20.8304 -20.8304 -20.8304 -20.8304 -20.8236 -20.8236 -20.8236 -20.8236
   -20.8152 -20.8152 -20.8152 -20.8152 -20.8141 -20.8141 -20.8131 -20.8131
    -5.0019  -5.0019  -4.7058  -4.7058  -4.7058  -4.7058  -2.2666  -2.2666
    -1.0721  -1.0721  -1.0721  -1.0721  -1.0072  -1.0072  -0.3504  -0.3504
    -0.2001  -0.2001  -0.0570  -0.0570   0.0759   0.0759   0.0759   0.0759
     1.0247   1.0247   1.8055   1.8055   5.7176   5.7176   5.9304   5.9304
     5.9304   5.9304   6.7296   6.7296   7.3038   7.3038   7.3038   7.3038
     7.5734   7.5734

     the Fermi energy is     3.3126 ev

!    total energy              =   -1223.63958730 Ry
     estimated scf accuracy    <          1.4E-09 Ry
     smearing contrib. (-TS)   =       0.00000000 Ry
     internal energy E=F+TS    =   -1223.63958730 Ry

     The total energy is F=E-TS. E is the sum of the following terms:
     one-electron contribution =    -816.26848353 Ry
     hartree contribution      =     437.30565973 Ry
     xc contribution           =    -179.81841103 Ry
     ewald contribution        =    -456.83040397 Ry
     one-center paw contrib.   =    -208.02794850 Ry

     convergence has been achieved in   9 iterations

     Forces acting on atoms (cartesian axes, Ry/au):

     atom    1 type  1   force =     0.00000000    0.00000000    0.00000000
     atom    2 type  1   force =     0.00000000    0.00000000    0.00000000
     atom    3 type  1   force =     0.00000000    0.00000000    0.00000000
     atom    4 type  1   force =     0.00000000    0.00000000    0.00000000
     atom    5 type  1   force =     0.00000000    0.00000000   -0.00000000
     atom    6 type  1   force =     0.00000000    0.00000000    0.00000000
     atom    7 type  2   force =     0.00000000    0.00000000    0.00000000
     atom    8 type  2   force =     0.00000000    0.00000000    0.00000000
     atom    9 type  2   force =    -0.00058374   -0.00058374    0.00000000
     atom   10 type  2   force =     0.00058374   -0.00058374    0.00000000
     atom   11 type  2   force =     0.00058374    0.00058374    0.00000000
     atom   12 type  2   force =     0.00058374   -0.00058374   -0.00000000
     atom   13 type  2   force =     0.00058374    0.00058374    0.00000000
     atom   14 type  2   force =    -0.00058374    0.00058374    0.00000000
     atom   15 type  2   force =    -0.00058374    0.00058374   -0.00000000
     atom   16 type  2   force =    -0.00058374   -0.00058374    0.00000000
     atom   17 type  3   force =     0.00101233   -0.00185940    0.00240131
     atom   18 type  3   force =    -0.00101233   -0.00185940   -0.00240131
     atom   19 type  3   force =     0.00185940   -0.00101233   -0.00240131
     atom   20 type  3   force =    -0.00101233   -0.00185940    0.00240131
     atom   21 type  3   force =     0.00185940   -0.00101233    0.00240131
     atom   22 type  3   force =    -0.00101233    0.00185940    0.00240131
     atom   23 type  3   force =    -0.00185940   -0.00101233    0.00240131
     atom   24 type  3   force =    -0.00101233    0.00185940   -0.00240131
     atom   25 type  3   force =    -0.00185940   -0.00101233   -0.00240131
     atom   26 type  3   force =     0.00185940    0.00101233    0.00240131
     atom   27 type  3   force =     0.00101233   -0.00185940   -0.00240131
     atom   28 type  3   force =     0.00185940    0.00101233   -0.00240131
     atom   29 type  3   force =     0.00101233    0.00185940   -0.00240131
     atom   30 type  3   force =    -0.00185940    0.00101233   -0.00240131
     atom   31 type  3   force =     0.00101233    0.00185940    0.00240131
     atom   32 type  3   force =    -0.00185940    0.00101233    0.00240131
     atom   33 type  3   force =     0.00000000    0.00000000   -0.00254872
     atom   34 type  3   force =     0.00000000    0.00000000    0.00254872
     atom   35 type  3   force =     0.00000000    0.00000000   -0.00254872
     atom   36 type  3   force =     0.00000000    0.00000000    0.00254872
     atom   37 type  3   force =    -0.00065792    0.00230029   -0.00000000
     atom   38 type  3   force =     0.00065792    0.00230029    0.00000000
     atom   39 type  3   force =    -0.00230029    0.00065792    0.00000000
     atom   40 type  3   force =     0.00065792   -0.00230029   -0.00000000
     atom   41 type  3   force =     0.00230029    0.00065792    0.00000000
     atom   42 type  3   force =    -0.00230029   -0.00065792    0.00000000
     atom   43 type  3   force =    -0.00065792   -0.00230029    0.00000000
     atom   44 type  3   force =     0.00230029   -0.00065792    0.00000000

     Total force =     0.015531     Total SCF correction =     0.000019


     Computing stress (Cartesian axis) and pressure

          total   stress  (Ry/bohr**3)                   (kbar)     P=       17.12
   0.00011247   0.00000000   0.00000000           16.54        0.00        0.00
   0.00000000   0.00011247   0.00000000            0.00       16.54        0.00
   0.00000000   0.00000000   0.00012412            0.00        0.00       18.26


     BFGS Geometry Optimization
     Energy error            =      0.0E+00 Ry
     Gradient error          =      2.5E-03 Ry/Bohr

     number of scf cycles    =   1
     number of bfgs steps    =   0

     energy             new  =   -1223.6395873000 Ry

     new trust radius        =       0.0032013268 bohr
     new conv_thr            =       0.0000000100 Ry


ATOMIC_POSITIONS (crystal)
Al            0.0000000000        0.0000000000        0.5000000000
Al            0.5000000000        0.5000000000        0.0000000000
Al            0.0000000000        0.5000000000        0.0000000000
Al            0.5000000000        0.0000000000        0.5000000000
Al            0.0000000000        0.5000000000        0.5000000000
Al            0.5000000000        0.0000000000        0.0000000000
Na            0.0000000000        0.0000000000        0.0000000000
Na            0.5000000000        0.5000000000        0.5000000000
Na            0.7873037134        0.2873037134        0.2500000000
Na            0.7126962866        0.7873037134        0.2500000000
Na            0.2126962866        0.7126962866        0.2500000000
Na            0.7126962866        0.7873037134        0.7500000000
Na            0.2126962866        0.7126962866        0.7500000000
Na            0.2873037134        0.2126962866        0.2500000000
Na            0.2873037134        0.2126962866        0.7500000000
Na            0.7873037134        0.2873037134        0.7500000000
H             0.0438802711        0.3199025611        0.1176345131
H             0.4561197289        0.8199025611        0.3823654869
H             0.1800974389        0.4561197289        0.3823654869
H             0.4561197289        0.8199025611        0.6176345131
H             0.1800974389        0.4561197289        0.6176345131
H             0.9561197289        0.6800974389        0.1176345131
H             0.3199025611        0.9561197289        0.1176345131
H             0.9561197289        0.6800974389        0.8823654869
H             0.3199025611        0.9561197289        0.8823654869
H             0.6800974389        0.0438802711        0.1176345131
H             0.0438802711        0.3199025611        0.8823654869
H             0.6800974389        0.0438802711        0.8823654869
H             0.5438802711        0.1800974389        0.3823654869
H             0.8199025611        0.5438802711        0.3823654869
H             0.5438802711        0.1800974389        0.6176345131
H             0.8199025611        0.5438802711        0.6176345131
H             0.0000000000        0.0000000000        0.3293578433
H             0.5000000000        0.5000000000        0.1706421567
H             0.5000000000        0.5000000000        0.8293578433
H             0.0000000000        0.0000000000        0.6706421567
H             0.2523178308        0.5753023980       -0.0000000000
H             0.2476821692        0.0753023980        0.5000000000
H             0.9246976020        0.2476821692        0.5000000000
H             0.7476821692        0.4246976020       -0.0000000000
H             0.5753023980        0.7476821692        0.0000000000
H             0.4246976020        0.2523178308        0.0000000000
H             0.7523178308        0.9246976020        0.5000000000
H             0.0753023980        0.7523178308        0.5000000000



     Writing config-only to output data dir temp/na5alh14.save/
     NEW-OLD atomic charge density approx. for the potential

     total cpu time spent up to now is       24.1 secs

     Self-consistent Calculation

     iteration #  1     ecut=    75.00 Ry     beta= 0.70
     Davidson diagonalization with overlap
     ethr =  1.00E-06,  avg # of iterations =  2.0

     Threshold (ethr) on eigenvalues was too large:
     Diagonalizing with lowered threshold

     Davidson diagonalization with overlap
     ethr =  1.48E-08,  avg # of iterations =  2.1

     total cpu time spent up to now is       27.4 secs

     total energy              =   -1223.63980320 Ry
     estimated scf accuracy    <       0.00002312 Ry

     iteration #  2     ecut=    75.00 Ry     beta= 0.70
     Davidson diagonalization with overlap
     ethr =  1.70E-08,  avg # of iterations =  2.0

     total cpu time spent up to now is       29.0 secs

     total energy              =   -1223.63980823 Ry
     estimated scf accuracy    <       0.00000325 Ry

     iteration #  3     ecut=    75.00 Ry     beta= 0.70
     Davidson diagonalization with overlap
     ethr =  2.39E-09,  avg # of iterations =  2.0

     total cpu time spent up to now is       31.0 secs

     total energy              =   -1223.63980888 Ry
     estimated scf accuracy    <       0.00000006 Ry

     iteration #  4     ecut=    75.00 Ry     beta= 0.70
     Davidson diagonalization with overlap
     ethr =  4.36E-11,  avg # of iterations =  4.0

     total cpu time spent up to now is       32.9 secs

     End of self-consistent calculation

          k = 0.0000 0.0000 0.0000 ( 33673 PWs)   bands (ev):

   -49.2065 -49.2065 -48.8990 -48.8990 -48.8962 -48.8962 -48.8962 -48.8962
   -48.8937 -48.8937 -21.1540 -21.1514 -21.1176 -21.1176 -21.1162 -21.1162
   -20.8724 -20.8711 -20.8582 -20.8582 -20.8581 -20.8581 -20.8580 -20.8577
   -20.8243 -20.8230 -20.8226 -20.8211 -20.8192 -20.8192 -20.8192 -20.8192
   -20.8001 -20.8001 -20.7999 -20.7999 -20.7983 -20.7980 -20.7969 -20.7968
    -6.1137  -5.8041  -4.0986  -3.8475  -2.7647  -2.6226  -2.6177  -2.5053
    -2.5053  -2.3295  -2.3295  -1.1211  -1.0120  -0.8301  -0.8301  -0.7328
    -0.6522  -0.6522  -0.2509  -0.1117   0.3188   0.7099   0.7099   0.9166
     1.1626   1.3805   1.3805   1.6205   4.4964   5.3373   6.3494   6.3494
     6.4020   6.5160   6.5842   7.0344   7.0344   7.0476   7.1661   7.2402
     7.2402   7.5364

          k = 0.0000 0.0000 0.1635 ( 33689 PWs)   bands (ev):

   -49.2065 -49.2065 -48.8990 -48.8990 -48.8962 -48.8962 -48.8962 -48.8962
   -48.8937 -48.8937 -21.1537 -21.1518 -21.1174 -21.1174 -21.1164 -21.1164
   -20.8722 -20.8713 -20.8582 -20.8582 -20.8581 -20.8581 -20.8580 -20.8578
   -20.8238 -20.8230 -20.8226 -20.8216 -20.8192 -20.8192 -20.8192 -20.8192
   -20.8001 -20.8001 -20.7999 -20.7999 -20.7983 -20.7980 -20.7969 -20.7968
    -6.0741  -5.8564  -4.0664  -3.8897  -2.7925  -2.6645  -2.4807  -2.4807
    -2.3932  -2.3564  -2.3564  -1.3736  -0.8941  -0.8130  -0.8130  -0.7413
    -0.6904  -0.6904  -0.3450  -0.2688   0.6457   0.8212   0.8212   0.9747
     1.1393   1.2927   1.2927   1.5040   4.6163   5.3262   6.2906   6.2906
     6.2929   6.5308   6.5864   6.6356   6.6356   6.9621   7.3122   7.7520
     7.7664   7.7665

          k = 0.0000 0.0000-0.3270 ( 33734 PWs)   bands (ev):

   -49.2065 -49.2065 -48.8990 -48.8990 -48.8962 -48.8962 -48.8962 -48.8962
   -48.8937 -48.8937 -21.1527 -21.1527 -21.1169 -21.1169 -21.1169 -21.1169
   -20.8718 -20.8718 -20.8581 -20.8581 -20.8581 -20.8581 -20.8579 -20.8579
   -20.8228 -20.8228 -20.8227 -20.8227 -20.8192 -20.8192 -20.8192 -20.8192
   -20.8000 -20.8000 -20.8000 -20.8000 -20.7982 -20.7982 -20.7968 -20.7968
    -5.9715  -5.9715  -3.9829  -3.9829  -2.7473  -2.7473  -2.4197  -2.4197
    -2.4197  -2.4197  -1.9213  -1.9213  -0.7615  -0.7615  -0.7615  -0.7615
    -0.5983  -0.5983  -0.5586  -0.5586   1.0679   1.0679   1.0679   1.0679
     1.0716   1.0716   1.1510   1.1510   4.9786   4.9786   6.3416   6.3416
     6.3416   6.3416   6.4624   6.4624   6.7686   6.7686   7.3356   7.3356
     8.1335   8.1335

          k = 0.0000 0.1667 0.0000 ( 33695 PWs)   bands (ev):

   -49.2065 -49.2065 -48.8988 -48.8988 -48.8964 -48.8964 -48.8960 -48.8960
   -48.8938 -48.8938 -21.1538 -21.1516 -21.1175 -21.1175 -21.1164 -21.1163
   -20.8708 -20.8697 -20.8590 -20.8589 -20.8575 -20.8573 -20.8528 -20.8527
   -20.8244 -20.8240 -20.8235 -20.8206 -20.8202 -20.8201 -20.8185 -20.8184
   -20.8034 -20.8034 -20.8001 -20.7999 -20.7999 -20.7997 -20.7975 -20.7973
    -6.0423  -5.7441  -4.2747  -4.0187  -3.1095  -2.9869  -2.5464  -2.4587
    -2.3042  -1.8575  -1.7185  -1.2228  -1.0313  -0.9330  -0.8890  -0.7574
    -0.7292  -0.7221  -0.3191  -0.1677   0.4048   0.7526   0.8250   0.9019
     1.1378   1.3698   1.3774   1.5554   4.7130   5.5148   6.3056   6.3381
     6.3448   6.3692   6.7608   6.7637   6.9505   7.0371   7.1721   7.2415
     7.3114   7.5884

          k = 0.0000 0.1667 0.1635 ( 33667 PWs)   bands (ev):

   -49.2065 -49.2065 -48.8988 -48.8988 -48.8964 -48.8964 -48.8960 -48.8960
   -48.8938 -48.8938 -21.1535 -21.1519 -21.1173 -21.1173 -21.1165 -21.1165
   -20.8706 -20.8698 -20.8590 -20.8589 -20.8574 -20.8574 -20.8528 -20.8527
   -20.8244 -20.8241 -20.8231 -20.8210 -20.8202 -20.8201 -20.8185 -20.8184
   -20.8034 -20.8034 -20.8001 -20.7999 -20.7999 -20.7997 -20.7974 -20.7973
    -6.0039  -5.7940  -4.2425  -4.0623  -3.1088  -3.0153  -2.4367  -2.3626
    -2.3268  -1.8336  -1.7513  -1.3766  -1.0193  -0.9227  -0.8533  -0.8114
    -0.7844  -0.6807  -0.3664  -0.3204   0.6348   0.8404   0.9497   0.9601
     1.1189   1.2193   1.2964   1.5376   4.8231   5.4987   6.1703   6.2463
     6.3075   6.4339   6.6929   6.7110   6.7984   6.8537   7.2562   7.2783
     7.5281   7.9136

          k = 0.0000 0.1667-0.3270 ( 33654 PWs)   bands (ev):

   -49.2065 -49.2065 -48.8988 -48.8988 -48.8964 -48.8964 -48.8960 -48.8960
   -48.8938 -48.8938 -21.1527 -21.1527 -21.1169 -21.1169 -21.1169 -21.1169
   -20.8702 -20.8702 -20.8589 -20.8589 -20.8574 -20.8574 -20.8528 -20.8528
   -20.8242 -20.8242 -20.8221 -20.8221 -20.8202 -20.8202 -20.8185 -20.8185
   -20.8034 -20.8034 -20.8000 -20.8000 -20.7998 -20.7998 -20.7974 -20.7974
    -5.9046  -5.9046  -4.1579  -4.1579  -3.0733  -3.0733  -2.3824  -2.3824
    -1.9416  -1.9416  -1.7496  -1.7496  -0.9122  -0.9122  -0.8560  -0.8560
    -0.6647  -0.6647  -0.4907  -0.4907   0.9311   0.9311   1.0257   1.0257
     1.0887   1.0887   1.3251   1.3251   5.1520   5.1520   6.2150   6.2150
     6.4060   6.4060   6.5614   6.5614   6.8128   6.8128   7.2217   7.2217
     7.9178   7.9178

          k = 0.0000 0.3333 0.0000 ( 33637 PWs)   bands (ev):

   -49.2065 -49.2065 -48.8983 -48.8983 -48.8969 -48.8969 -48.8956 -48.8956
   -48.8943 -48.8943 -21.1534 -21.1521 -21.1173 -21.1172 -21.1166 -21.1166
   -20.8677 -20.8668 -20.8612 -20.8610 -20.8501 -20.8499 -20.8434 -20.8432
   -20.8294 -20.8291 -20.8241 -20.8238 -20.8212 -20.8189 -20.8163 -20.8162
   -20.8109 -20.8104 -20.8061 -20.8060 -20.7993 -20.7992 -20.7979 -20.7978
    -5.8432  -5.6039  -4.6494  -4.4310  -3.2172  -3.1450  -2.3472  -2.3376
    -2.2454  -1.6025  -1.2677  -1.1451  -1.1410  -0.9533  -0.9090  -0.7324
    -0.6396  -0.6300  -0.4956  -0.3069   0.4314   0.7035   0.8548   0.9681
     1.0731   1.3581   1.3739   1.3823   5.2501   5.9149   6.0379   6.2179
     6.2652   6.3570   6.6191   6.7043   6.7796   7.2476   7.3152   7.4536
     7.6508   7.7284

          k = 0.0000 0.3333 0.1635 ( 33632 PWs)   bands (ev):

   -49.2065 -49.2065 -48.8983 -48.8983 -48.8969 -48.8969 -48.8956 -48.8956
   -48.8943 -48.8943 -21.1532 -21.1523 -21.1172 -21.1171 -21.1167 -21.1167
   -20.8675 -20.8670 -20.8612 -20.8610 -20.8501 -20.8500 -20.8433 -20.8432
   -20.8294 -20.8291 -20.8240 -20.8238 -20.8209 -20.8193 -20.8163 -20.8162
   -20.8108 -20.8105 -20.8061 -20.8060 -20.7993 -20.7992 -20.7979 -20.7978
    -5.8101  -5.6406  -4.6280  -4.4731  -3.2145  -3.1604  -2.3317  -2.2605
    -2.1707  -1.5475  -1.2538  -1.1724  -1.1376  -1.1284  -0.9519  -0.8182
    -0.6641  -0.5490  -0.4837  -0.3905   0.5384   0.7311   0.8959   0.9591
     1.1339   1.1361   1.3585   1.5421   5.3489   5.9122   6.1070   6.1573
     6.2722   6.3716   6.3832   6.5374   6.9858   7.1666   7.4047   7.4326
     7.7185   7.9846

          k = 0.0000 0.3333-0.3270 ( 33628 PWs)   bands (ev):

   -49.2065 -49.2065 -48.8983 -48.8983 -48.8969 -48.8969 -48.8956 -48.8956
   -48.8943 -48.8943 -21.1527 -21.1527 -21.1170 -21.1170 -21.1169 -21.1169
   -20.8673 -20.8673 -20.8611 -20.8611 -20.8500 -20.8500 -20.8433 -20.8433
   -20.8293 -20.8293 -20.8239 -20.8239 -20.8201 -20.8201 -20.8163 -20.8163
   -20.8106 -20.8106 -20.8060 -20.8060 -20.7993 -20.7993 -20.7979 -20.7979
    -5.7273  -5.7273  -4.5606  -4.5606  -3.1930  -3.1930  -2.2950  -2.2950
    -1.7810  -1.7810  -1.2250  -1.2250  -1.1329  -1.1329  -0.9886  -0.9886
    -0.6414  -0.6414  -0.4024  -0.4024   0.6849   0.6849   0.9261   0.9261
     1.0981   1.0981   1.4951   1.4951   5.6190   5.6190   6.0512   6.0512
     6.3983   6.3983   6.6921   6.6921   6.7643   6.7643   7.4914   7.4914
     7.8853   7.8853

          k = 0.0000-0.5000 0.0000 ( 33654 PWs)   bands (ev):

   -49.2065 -49.2065 -48.8976 -48.8976 -48.8976 -48.8976 -48.8949 -48.8949
   -48.8949 -48.8949 -21.1527 -21.1527 -21.1170 -21.1170 -21.1169 -21.1169
   -20.8643 -20.8643 -20.8639 -20.8639 -20.8389 -20.8389 -20.8387 -20.8387
   -20.8324 -20.8324 -20.8321 -20.8321 -20.8174 -20.8174 -20.8159 -20.8159
   -20.8122 -20.8122 -20.8122 -20.8122 -20.7986 -20.7986 -20.7986 -20.7986
    -5.6065  -5.6065  -4.7598  -4.7598  -3.1950  -3.1950  -2.2455  -2.2455
    -2.0092  -2.0092  -1.2689  -1.2689  -1.0613  -1.0613  -0.7140  -0.7140
    -0.4772  -0.4772  -0.1378  -0.1378   0.2093   0.2093   0.9570   0.9570
     1.1830   1.1830   1.3682   1.3682   5.7976   5.7976   6.0262   6.0262
     6.2692   6.2692   6.8303   6.8303   7.2146   7.2146   7.3498   7.3498
     7.8090   7.8090

          k = 0.0000-0.5000 0.1635 ( 33644 PWs)   bands (ev):

   -49.2065 -49.2065 -48.8976 -48.8976 -48.8976 -48.8976 -48.8949 -48.8949
   -48.8949 -48.8949 -21.1527 -21.1527 -21.1170 -21.1170 -21.1169 -21.1169
   -20.8643 -20.8643 -20.8638 -20.8638 -20.8389 -20.8389 -20.8387 -20.8387
   -20.8323 -20.8323 -20.8322 -20.8322 -20.8174 -20.8174 -20.8159 -20.8159
   -20.8123 -20.8123 -20.8121 -20.8121 -20.7986 -20.7986 -20.7985 -20.7985
    -5.5981  -5.5981  -4.7807  -4.7807  -3.1981  -3.1981  -2.2439  -2.2439
    -1.8792  -1.8792  -1.2656  -1.2656  -1.1463  -1.1463  -0.8253  -0.8253
    -0.5096  -0.5096  -0.0349  -0.0349   0.1956   0.1956   0.9324   0.9324
     1.1248   1.1248   1.4767   1.4767   5.8666   5.8666   6.1032   6.1032
     6.2392   6.2392   6.6339   6.6339   7.0641   7.0641   7.5803   7.5803
     8.0002   8.0004

          k = 0.0000-0.5000-0.3270 ( 33572 PWs)   bands (ev):

   -49.2065 -49.2065 -48.8976 -48.8976 -48.8976 -48.8976 -48.8949 -48.8949
   -48.8949 -48.8949 -21.1527 -21.1527 -21.1170 -21.1170 -21.1169 -21.1169
   -20.8643 -20.8643 -20.8638 -20.8638 -20.8388 -20.8388 -20.8388 -20.8388
   -20.8323 -20.8323 -20.8322 -20.8322 -20.8175 -20.8175 -20.8158 -20.8158
   -20.8124 -20.8124 -20.8120 -20.8120 -20.7987 -20.7987 -20.7984 -20.7984
    -5.5893  -5.5893  -4.8017  -4.8017  -3.2008  -3.2008  -2.2421  -2.2421
    -1.6913  -1.6913  -1.2620  -1.2620  -1.2161  -1.2161  -1.0645  -1.0645
    -0.4455  -0.4455   0.0504   0.0504   0.1644   0.1644   0.8889   0.8889
     1.1047   1.1047   1.5584   1.5584   5.9217   5.9217   6.0864   6.0864
     6.3155   6.3155   6.7096   6.7096   6.7891   6.7891   7.8231   7.8232
     7.9091   7.9091

          k = 0.1667 0.1667 0.0000 ( 33661 PWs)   bands (ev):

   -49.2065 -49.2065 -48.8986 -48.8986 -48.8962 -48.8962 -48.8962 -48.8962
   -48.8940 -48.8940 -21.1537 -21.1518 -21.1176 -21.1173 -21.1166 -21.1163
   -20.8688 -20.8678 -20.8584 -20.8583 -20.8551 -20.8551 -20.8511 -20.8509
   -20.8257 -20.8253 -20.8228 -20.8201 -20.8200 -20.8198 -20.8192 -20.8191
   -20.8036 -20.8035 -20.8033 -20.8031 -20.7998 -20.7998 -20.7998 -20.7996
    -5.9703  -5.6817  -4.3628  -4.0952  -3.4553  -3.3561  -2.4759  -2.0380
    -1.9191  -1.6843  -1.5981  -1.1855  -1.1652  -1.1236  -1.0877  -0.7232
    -0.6514  -0.6180  -0.3931  -0.2101   0.4460   0.7807   0.8764   0.8819
     1.0793   1.3112   1.4821   1.4913   4.8717   5.6248   6.1946   6.3098
     6.3653   6.3899   6.7705   6.8199   6.9064   6.9491   7.0182   7.0956
     7.1762   7.7831

          k = 0.1667 0.1667 0.1635 ( 33683 PWs)   bands (ev):

   -49.2065 -49.2065 -48.8986 -48.8986 -48.8962 -48.8962 -48.8962 -48.8962
   -48.8940 -48.8940 -21.1534 -21.1520 -21.1174 -21.1172 -21.1167 -21.1165
   -20.8687 -20.8679 -20.8584 -20.8583 -20.8551 -20.8551 -20.8511 -20.8510
   -20.8256 -20.8253 -20.8224 -20.8205 -20.8199 -20.8198 -20.8192 -20.8191
   -20.8036 -20.8035 -20.8032 -20.8031 -20.7998 -20.7998 -20.7997 -20.7996
    -5.9329  -5.7297  -4.3285  -4.1402  -3.4520  -3.3781  -2.3033  -2.0206
    -1.9355  -1.6702  -1.6168  -1.4282  -1.1174  -1.0580  -1.0060  -0.7918
    -0.6608  -0.6359  -0.4099  -0.3730   0.5897   0.8670   0.8914   0.9915
     1.0592   1.2149   1.4156   1.5072   4.9734   5.5824   6.0832   6.3129
     6.4389   6.5064   6.5373   6.7980   6.9021   6.9227   6.9554   7.1848
     7.3266   7.9165

          k = 0.1667 0.1667-0.3270 ( 33648 PWs)   bands (ev):

   -49.2065 -49.2065 -48.8986 -48.8986 -48.8962 -48.8962 -48.8962 -48.8962
   -48.8940 -48.8940 -21.1527 -21.1527 -21.1169 -21.1169 -21.1169 -21.1169
   -20.8683 -20.8683 -20.8584 -20.8584 -20.8551 -20.8551 -20.8510 -20.8510
   -20.8255 -20.8255 -20.8214 -20.8214 -20.8199 -20.8199 -20.8192 -20.8192
   -20.8035 -20.8035 -20.8032 -20.8032 -20.7998 -20.7998 -20.7997 -20.7997
    -5.8365  -5.8365  -4.2396  -4.2396  -3.4234  -3.4234  -1.9809  -1.9809
    -1.8823  -1.8823  -1.6316  -1.6316  -1.1291  -1.1291  -0.7656  -0.7656
    -0.6427  -0.6427  -0.5378  -0.5378   0.7460   0.7460   1.0058   1.0058
     1.2658   1.2658   1.3218   1.3218   5.2596   5.2596   6.2450   6.2450
     6.4816   6.4816   6.6243   6.6244   6.8904   6.8904   7.0435   7.0435
     7.6716   7.6716

          k = 0.1667 0.3333 0.0000 ( 33641 PWs)   bands (ev):

   -49.2065 -49.2065 -48.8981 -48.8981 -48.8967 -48.8967 -48.8957 -48.8957
   -48.8945 -48.8945 -21.1533 -21.1521 -21.1175 -21.1170 -21.1169 -21.1164
   -20.8650 -20.8642 -20.8586 -20.8584 -20.8494 -20.8493 -20.8430 -20.8428
   -20.8302 -20.8298 -20.8237 -20.8234 -20.8206 -20.8185 -20.8172 -20.8171
   -20.8107 -20.8101 -20.8068 -20.8067 -20.8020 -20.8019 -20.8004 -20.8003
    -5.7688  -5.5322  -4.6474  -4.4142  -3.6505  -3.5961  -2.2697  -1.8722
    -1.7780  -1.5482  -1.5478  -1.3764  -1.0322  -0.9377  -0.7335  -0.6397
    -0.6359  -0.5862  -0.5313  -0.3251   0.4472   0.6809   0.8184   0.8889
     0.9809   1.3108   1.4066   1.5406   5.2577   5.8175   5.9496   6.0748
     6.3507   6.4865   6.5303   6.5549   6.8183   7.2870   7.3526   7.4145
     7.6721   7.6990

          k = 0.1667 0.3333 0.1635 ( 33628 PWs)   bands (ev):

   -49.2065 -49.2065 -48.8981 -48.8981 -48.8967 -48.8967 -48.8957 -48.8957
   -48.8945 -48.8945 -21.1531 -21.1523 -21.1173 -21.1170 -21.1169 -21.1165
   -20.8649 -20.8643 -20.8586 -20.8585 -20.8494 -20.8493 -20.8429 -20.8428
   -20.8301 -20.8299 -20.8237 -20.8235 -20.8203 -20.8188 -20.8172 -20.8171
   -20.8106 -20.8102 -20.8068 -20.8067 -20.8019 -20.8019 -20.8004 -20.8003
    -5.7362  -5.5686  -4.6218  -4.4568  -3.6491  -3.6085  -2.1217  -1.8780
    -1.7818  -1.6261  -1.4503  -1.3472  -1.0781  -0.9352  -0.7743  -0.7541
    -0.6730  -0.5363  -0.4736  -0.4604   0.4966   0.6853   0.7555   0.8391
     1.1047   1.3101   1.4437   1.5386   5.3590   5.7704   6.0699   6.2306
     6.2795   6.3439   6.4466   6.6799   6.9643   7.2291   7.3259   7.4259
     7.5126   7.6854

          k = 0.1667 0.3333-0.3270 ( 33656 PWs)   bands (ev):

   -49.2065 -49.2065 -48.8981 -48.8981 -48.8967 -48.8967 -48.8957 -48.8957
   -48.8945 -48.8945 -21.1527 -21.1527 -21.1170 -21.1170 -21.1169 -21.1169
   -20.8646 -20.8646 -20.8585 -20.8585 -20.8494 -20.8493 -20.8429 -20.8428
   -20.8300 -20.8300 -20.8236 -20.8236 -20.8196 -20.8195 -20.8172 -20.8172
   -20.8104 -20.8103 -20.8068 -20.8067 -20.8019 -20.8019 -20.8003 -20.8003
    -5.6545  -5.6545  -4.5478  -4.5471  -3.6350  -3.6325  -1.9004  -1.8784
    -1.7527  -1.7005  -1.4817  -1.3436  -1.0303  -0.9982  -0.9271  -0.7295
    -0.6922  -0.5760  -0.4665  -0.4473   0.5435   0.5527   0.7799   0.8050
     1.2862   1.2990   1.4624   1.5006   5.5685   5.5899   6.1193   6.2177
     6.3732   6.4637   6.6196   6.8041   6.8402   6.8709   7.3349   7.3687
     7.6071   7.7030

          k = 0.1667-0.5000 0.0000 ( 33614 PWs)   bands (ev):

   -49.2065 -49.2065 -48.8974 -48.8974 -48.8974 -48.8974 -48.8951 -48.8951
   -48.8951 -48.8951 -21.1527 -21.1527 -21.1173 -21.1173 -21.1166 -21.1166
   -20.8614 -20.8614 -20.8610 -20.8610 -20.8390 -20.8390 -20.8388 -20.8388
   -20.8322 -20.8322 -20.8320 -20.8320 -20.8169 -20.8169 -20.8156 -20.8156
   -20.8130 -20.8130 -20.8128 -20.8128 -20.8012 -20.8012 -20.8012 -20.8012
    -5.5269  -5.5269  -4.7404  -4.7404  -3.6499  -3.6499  -1.9461  -1.9461
    -1.8141  -1.8141  -1.5235  -1.5235  -0.8223  -0.8223  -0.7110  -0.7110
    -0.4840  -0.4840  -0.1019  -0.1019   0.1905   0.1905   0.8542   0.8542
     1.0999   1.0999   1.5162   1.5162   5.6557   5.6557   5.8721   5.8721
     6.4349   6.4349   6.6458   6.6458   7.0558   7.0558   7.3336   7.3336
     7.8495   7.8495

          k = 0.1667-0.5000 0.1635 ( 33622 PWs)   bands (ev):

   -49.2065 -49.2065 -48.8974 -48.8974 -48.8974 -48.8974 -48.8951 -48.8951
   -48.8951 -48.8951 -21.1527 -21.1527 -21.1172 -21.1172 -21.1167 -21.1167
   -20.8614 -20.8614 -20.8610 -20.8610 -20.8390 -20.8390 -20.8388 -20.8388
   -20.8321 -20.8321 -20.8320 -20.8320 -20.8169 -20.8169 -20.8156 -20.8156
   -20.8131 -20.8131 -20.8128 -20.8128 -20.8013 -20.8013 -20.8011 -20.8011
    -5.5183  -5.5183  -4.7594  -4.7594  -3.6533  -3.6533  -1.9103  -1.9103
    -1.7463  -1.7463  -1.5153  -1.5153  -0.8973  -0.8973  -0.7068  -0.7068
    -0.5921  -0.5921  -0.0156  -0.0156   0.1742   0.1742   0.7195   0.7195
     1.2246   1.2246   1.5315   1.5315   5.7582   5.7582   5.9935   5.9935
     6.3086   6.3086   6.6484   6.6484   6.9977   6.9977   7.4833   7.4833
     7.8084   7.8085

          k = 0.1667-0.5000-0.3270 ( 33612 PWs)   bands (ev):

   -49.2065 -49.2065 -48.8974 -48.8974 -48.8974 -48.8974 -48.8951 -48.8951
   -48.8951 -48.8951 -21.1527 -21.1527 -21.1170 -21.1170 -21.1169 -21.1169
   -20.8614 -20.8614 -20.8610 -20.8610 -20.8389 -20.8389 -20.8389 -20.8389
   -20.8321 -20.8321 -20.8320 -20.8320 -20.8170 -20.8170 -20.8156 -20.8156
   -20.8131 -20.8131 -20.8128 -20.8128 -20.8013 -20.8013 -20.8011 -20.8011
    -5.5093  -5.5093  -4.7786  -4.7786  -3.6564  -3.6564  -1.9115  -1.9115
    -1.6541  -1.6541  -1.3315  -1.3315  -1.2153  -1.2153  -0.7589  -0.7589
    -0.5180  -0.5180   0.0586   0.0586   0.1312   0.1312   0.6201   0.6201
     1.3006   1.3006   1.5529   1.5529   5.9245   5.9245   5.9962   5.9962
     6.3445   6.3445   6.6261   6.6261   6.9049   6.9049   7.5507   7.5507
     7.7818   7.7818

          k = 0.3333 0.3333 0.0000 ( 33684 PWs)   bands (ev):

   -49.2065 -49.2065 -48.8976 -48.8976 -48.8963 -48.8963 -48.8962 -48.8962
   -48.8949 -48.8949 -21.1530 -21.1524 -21.1176 -21.1172 -21.1167 -21.1163
   -20.8592 -20.8585 -20.8533 -20.8529 -20.8479 -20.8479 -20.8390 -20.8388
   -20.8335 -20.8332 -20.8234 -20.8231 -20.8203 -20.8198 -20.8178 -20.8166
   -20.8120 -20.8112 -20.8093 -20.8090 -20.8073 -20.8069 -20.8049 -20.8047
    -5.5578  -5.3432  -4.7077  -4.4196  -4.1596  -4.1190  -2.0718  -1.9096
    -1.8850  -1.4472  -1.3060  -1.0737  -0.9293  -0.8275  -0.6401  -0.5750
    -0.5680  -0.4355  -0.3871  -0.3694   0.4260   0.6654   0.6712   0.7549
     0.7591   1.0950   1.6058   1.6951   5.3005   5.5130   5.6972   5.8161
     6.2809   6.2932   6.6263   6.9029   7.0207   7.1790   7.2341   7.3398
     7.8158   7.8889

          k = 0.3333 0.3333 0.1635 ( 33624 PWs)   bands (ev):

   -49.2065 -49.2065 -48.8976 -48.8976 -48.8963 -48.8963 -48.8962 -48.8962
   -48.8949 -48.8949 -21.1529 -21.1525 -21.1174 -21.1172 -21.1168 -21.1165
   -20.8591 -20.8586 -20.8532 -20.8529 -20.8479 -20.8479 -20.8390 -20.8389
   -20.8335 -20.8332 -20.8233 -20.8231 -20.8202 -20.8199 -20.8177 -20.8168
   -20.8119 -20.8113 -20.8092 -20.8090 -20.8072 -20.8069 -20.8049 -20.8048
    -5.5279  -5.3760  -4.6710  -4.4684  -4.1583  -4.1320  -2.0426  -1.9816
    -1.7919  -1.3178  -1.2110  -1.0389  -0.9721  -0.8038  -0.7161  -0.6361
    -0.5985  -0.5055  -0.4340  -0.3836   0.3953   0.4947   0.5734   0.6794
     1.0127   1.2216   1.6154   1.6742   5.4414   5.6091   5.8610   5.9457
     6.1526   6.3491   6.6675   6.8232   7.0120   7.2571   7.3586   7.3943
     7.5974   7.6957

          k = 0.3333 0.3333-0.3270 ( 33598 PWs)   bands (ev):

   -49.2065 -49.2065 -48.8976 -48.8976 -48.8963 -48.8963 -48.8962 -48.8962
   -48.8949 -48.8949 -21.1527 -21.1527 -21.1170 -21.1170 -21.1169 -21.1169
   -20.8589 -20.8589 -20.8531 -20.8531 -20.8479 -20.8479 -20.8389 -20.8389
   -20.8333 -20.8333 -20.8232 -20.8232 -20.8200 -20.8200 -20.8173 -20.8173
   -20.8116 -20.8116 -20.8091 -20.8091 -20.8071 -20.8071 -20.8049 -20.8049
    -5.4534  -5.4534  -4.5755  -4.5755  -4.1506  -4.1506  -2.0443  -2.0443
    -1.4352  -1.4352  -1.0700  -1.0700  -0.9291  -0.9291  -0.7547  -0.7547
    -0.5432  -0.5432  -0.4182  -0.4182   0.3025   0.3025   0.6335   0.6335
     1.2321   1.2321   1.6358   1.6358   5.6556   5.6556   6.0209   6.0209
     6.3410   6.3410   6.7001   6.7001   7.0144   7.0144   7.4041   7.4041
     7.5751   7.5752

          k = 0.3333-0.5000 0.0000 ( 33646 PWs)   bands (ev):

   -49.2065 -49.2065 -48.8969 -48.8969 -48.8969 -48.8969 -48.8956 -48.8956
   -48.8956 -48.8956 -21.1527 -21.1527 -21.1175 -21.1175 -21.1164 -21.1164
   -20.8543 -20.8543 -20.8538 -20.8538 -20.8405 -20.8405 -20.8403 -20.8403
   -20.8304 -20.8304 -20.8302 -20.8302 -20.8173 -20.8173 -20.8168 -20.8168
   -20.8141 -20.8141 -20.8136 -20.8136 -20.8072 -20.8072 -20.8068 -20.8068
    -5.2938  -5.2938  -4.7132  -4.7132  -4.2617  -4.2617  -2.0109  -2.0109
    -1.7653  -1.7653  -1.1135  -1.1135  -0.8412  -0.8412  -0.4579  -0.4579
    -0.3943  -0.3943  -0.0300  -0.0300   0.1432   0.1432   0.7154   0.7154
     0.8363   0.8363   1.7251   1.7251   5.3760   5.3760   5.5297   5.5297
     6.4535   6.4535   6.7612   6.7612   6.9152   6.9152   7.5693   7.5693
     7.9359   7.9359

          k = 0.3333-0.5000 0.1635 ( 33640 PWs)   bands (ev):

   -49.2065 -49.2065 -48.8969 -48.8969 -48.8969 -48.8969 -48.8956 -48.8956
   -48.8956 -48.8956 -21.1527 -21.1527 -21.1173 -21.1173 -21.1166 -21.1166
   -20.8543 -20.8543 -20.8539 -20.8539 -20.8405 -20.8405 -20.8403 -20.8403
   -20.8304 -20.8304 -20.8303 -20.8303 -20.8173 -20.8173 -20.8168 -20.8168
   -20.8142 -20.8142 -20.8135 -20.8135 -20.8071 -20.8071 -20.8069 -20.8069
    -5.2849  -5.2849  -4.7210  -4.7210  -4.2749  -4.2749  -2.0942  -2.0942
    -1.5823  -1.5823  -1.0252  -1.0252  -0.8164  -0.8164  -0.6705  -0.6705
    -0.4054  -0.4054   0.0266   0.0266   0.1056   0.1056   0.4667   0.4667
     1.0635   1.0635   1.7215   1.7215   5.5419   5.5419   5.7016   5.7016
     6.2939   6.2939   6.7778   6.7778   7.0326   7.0326   7.4395   7.4395
     7.7634   7.7634

          k = 0.3333-0.5000-0.3270 ( 33628 PWs)   bands (ev):

   -49.2065 -49.2065 -48.8969 -48.8969 -48.8969 -48.8969 -48.8956 -48.8956
   -48.8956 -48.8956 -21.1527 -21.1527 -21.1170 -21.1170 -21.1170 -21.1170
   -20.8542 -20.8542 -20.8539 -20.8539 -20.8404 -20.8404 -20.8404 -20.8404
   -20.8303 -20.8303 -20.8303 -20.8303 -20.8172 -20.8172 -20.8169 -20.8169
   -20.8143 -20.8143 -20.8135 -20.8135 -20.8070 -20.8070 -20.8070 -20.8070
    -5.2755  -5.2755  -4.7295  -4.7295  -4.2874  -4.2874  -2.1501  -2.1501
    -1.2620  -1.2620  -1.1389  -1.1389  -0.8818  -0.8818  -0.6877  -0.6877
    -0.4347  -0.4347   0.0053   0.0053   0.0747   0.0747   0.3566   0.3566
     1.1744   1.1744   1.7172   1.7172   5.8260   5.8260   5.8913   5.8913
     6.1018   6.1018   6.7422   6.7422   7.1000   7.1000   7.3328   7.3328
     7.5874   7.5874

          k =-0.5000-0.5000 0.0000 ( 33664 PWs)   bands (ev):

   -49.2065 -49.2065 -48.8963 -48.8963 -48.8963 -48.8963 -48.8962 -48.8962
   -48.8962 -48.8962 -21.1527 -21.1527 -21.1176 -21.1176 -21.1164 -21.1164
   -20.8485 -20.8485 -20.8479 -20.8479 -20.8434 -20.8434 -20.8432 -20.8432
   -20.8275 -20.8275 -20.8274 -20.8274 -20.8209 -20.8209 -20.8205 -20.8205
   -20.8125 -20.8125 -20.8121 -20.8121 -20.8115 -20.8115 -20.8100 -20.8100
    -5.0039  -5.0039  -4.8388  -4.8388  -4.5430  -4.5430  -2.1337  -2.1337
    -1.5537  -1.5537  -1.3792  -1.3792  -0.4372  -0.4372  -0.3611  -0.3611
    -0.1824  -0.1824  -0.0875  -0.0875   0.1168   0.1168   0.5733   0.5733
     0.6561   0.6561   1.8105   1.8105   5.2674   5.2674   5.3155   5.3155
     6.4186   6.4186   6.7889   6.7889   7.5139   7.5424   7.5424   7.6635
     7.6650   7.7524

          k =-0.5000-0.5000 0.1635 ( 33624 PWs)   bands (ev):

   -49.2065 -49.2065 -48.8963 -48.8963 -48.8963 -48.8963 -48.8962 -48.8962
   -48.8962 -48.8962 -21.1527 -21.1527 -21.1174 -21.1174 -21.1165 -21.1165
   -20.8484 -20.8484 -20.8480 -20.8480 -20.8434 -20.8434 -20.8433 -20.8433
   -20.8275 -20.8275 -20.8275 -20.8275 -20.8208 -20.8208 -20.8205 -20.8205
   -20.8125 -20.8125 -20.8122 -20.8122 -20.8114 -20.8114 -20.8101 -20.8101
    -5.0025  -5.0025  -4.8012  -4.8012  -4.5932  -4.5932  -2.2082  -2.2082
    -1.4168  -1.4168  -1.2040  -1.2040  -0.6667  -0.6667  -0.3537  -0.3537
    -0.1922  -0.1922  -0.0001  -0.0001   0.1087   0.1087   0.1980   0.1980
     0.9187   0.9187   1.8076   1.8076   5.4513   5.4513   5.5166   5.5166
     6.2676   6.2676   6.8932   6.8932   7.1160   7.1160   7.6908   7.6908
     7.7653   7.7653

          k =-0.5000-0.5000-0.3270 ( 33616 PWs)   bands (ev):

   -49.2065 -49.2065 -48.8963 -48.8963 -48.8963 -48.8963 -48.8962 -48.8962
   -48.8962 -48.8962 -21.1527 -21.1527 -21.1170 -21.1170 -21.1170 -21.1170
   -20.8483 -20.8483 -20.8481 -20.8481 -20.8433 -20.8433 -20.8433 -20.8433
   -20.8275 -20.8275 -20.8275 -20.8275 -20.8207 -20.8207 -20.8206 -20.8206
   -20.8123 -20.8123 -20.8123 -20.8123 -20.8112 -20.8112 -20.8102 -20.8102
    -5.0011  -5.0011  -4.7033  -4.7033  -4.7033  -4.7033  -2.2669  -2.2669
    -1.0708  -1.0708  -1.0708  -1.0708  -1.0059  -1.0059  -0.3485  -0.3485
    -0.2001  -0.2001  -0.0583  -0.0583   0.0768   0.0768   0.0768   0.0768
     1.0242   1.0242   1.8047   1.8047   5.7157   5.7157   5.9271   5.9271
     5.9271   5.9271   6.7293   6.7293   7.3046   7.3046   7.3046   7.3046
     7.5726   7.5726

     the Fermi energy is     3.3106 ev

!    total energy              =   -1223.63980889 Ry
     estimated scf accuracy    <          8.6E-09 Ry
     smearing contrib. (-TS)   =       0.00000000 Ry
     internal energy E=F+TS    =   -1223.63980889 Ry

     The total energy is F=E-TS. E is the sum of the following terms:
     one-electron contribution =    -816.32939449 Ry
     hartree contribution      =     437.34093560 Ry
     xc contribution           =    -179.81130625 Ry
     ewald contribution        =    -456.81334927 Ry
     one-center paw contrib.   =    -208.02669447 Ry

     convergence has been achieved in   4 iterations

     Forces acting on atoms (cartesian axes, Ry/au):

     atom    1 type  1   force =     0.00000000    0.00000000    0.00000000
     atom    2 type  1   force =     0.00000000    0.00000000    0.00000000
     atom    3 type  1   force =     0.00000000    0.00000000    0.00000000
     atom    4 type  1   force =     0.00000000    0.00000000   -0.00000000
     atom    5 type  1   force =     0.00000000    0.00000000   -0.00000000
     atom    6 type  1   force =     0.00000000    0.00000000    0.00000000
     atom    7 type  2   force =     0.00000000    0.00000000    0.00000000
     atom    8 type  2   force =     0.00000000    0.00000000    0.00000000
     atom    9 type  2   force =    -0.00051224   -0.00051224    0.00000000
     atom   10 type  2   force =     0.00051224   -0.00051224    0.00000000
     atom   11 type  2   force =     0.00051224    0.00051224    0.00000000
     atom   12 type  2   force =     0.00051224   -0.00051224    0.00000000
     atom   13 type  2   force =     0.00051224    0.00051224    0.00000000
     atom   14 type  2   force =    -0.00051224    0.00051224    0.00000000
     atom   15 type  2   force =    -0.00051224    0.00051224    0.00000000
     atom   16 type  2   force =    -0.00051224   -0.00051224    0.00000000
     atom   17 type  3   force =     0.00090127   -0.00146541    0.00194854
     atom   18 type  3   force =    -0.00090127   -0.00146541   -0.00194854
     atom   19 type  3   force =     0.00146541   -0.00090127   -0.00194854
     atom   20 type  3   force =    -0.00090127   -0.00146541    0.00194854
     atom   21 type  3   force =     0.00146541   -0.00090127    0.00194854
     atom   22 type  3   force =    -0.00090127    0.00146541    0.00194854
     atom   23 type  3   force =    -0.00146541   -0.00090127    0.00194854
     atom   24 type  3   force =    -0.00090127    0.00146541   -0.00194854
     atom   25 type  3   force =    -0.00146541   -0.00090127   -0.00194854
     atom   26 type  3   force =     0.00146541    0.00090127    0.00194854
     atom   27 type  3   force =     0.00090127   -0.00146541   -0.00194854
     atom   28 type  3   force =     0.00146541    0.00090127   -0.00194854
     atom   29 type  3   force =     0.00090127    0.00146541   -0.00194854
     atom   30 type  3   force =    -0.00146541    0.00090127   -0.00194854
     atom   31 type  3   force =     0.00090127    0.00146541    0.00194854
     atom   32 type  3   force =    -0.00146541    0.00090127    0.00194854
     atom   33 type  3   force =     0.00000000    0.00000000   -0.00207315
     atom   34 type  3   force =     0.00000000    0.00000000    0.00207315
     atom   35 type  3   force =     0.00000000    0.00000000   -0.00207315
     atom   36 type  3   force =     0.00000000    0.00000000    0.00207315
     atom   37 type  3   force =    -0.00050968    0.00219475    0.00000000
     atom   38 type  3   force =     0.00050968    0.00219475    0.00000000
     atom   39 type  3   force =    -0.00219475    0.00050968    0.00000000
     atom   40 type  3   force =     0.00050968   -0.00219475    0.00000000
     atom   41 type  3   force =     0.00219475    0.00050968    0.00000000
     atom   42 type  3   force =    -0.00219475   -0.00050968    0.00000000
     atom   43 type  3   force =    -0.00050968   -0.00219475    0.00000000
     atom   44 type  3   force =     0.00219475   -0.00050968    0.00000000

     Total force =     0.013043     Total SCF correction =     0.000066


     Computing stress (Cartesian axis) and pressure

          total   stress  (Ry/bohr**3)                   (kbar)     P=       16.67
   0.00011026   0.00000000   0.00000000           16.22        0.00        0.00
[...]
    -5.5102  -5.5102  -4.7212  -4.7212  -3.6272  -3.6272  -1.9458  -1.9458
    -1.8177  -1.8177  -1.5096  -1.5096  -0.8121  -0.8121  -0.6961  -0.6961
    -0.4707  -0.4707  -0.0989  -0.0989   0.1995   0.1995   0.8471   0.8471
     1.0979   1.0979   1.5120   1.5120   5.6419   5.6419   5.8561   5.8561
     6.4315   6.4315   6.6319   6.6319   7.0326   7.0326   7.3278   7.3278
     7.8156   7.8156

          k = 0.1667-0.5000 0.1635 ( 33622 PWs)   bands (ev):

   -49.1965 -49.1965 -48.8781 -48.8781 -48.8781 -48.8781 -48.8758 -48.8758
   -48.8758 -48.8758 -21.1421 -21.1421 -21.1074 -21.1074 -21.1070 -21.1070
   -20.8425 -20.8425 -20.8420 -20.8420 -20.8199 -20.8199 -20.8198 -20.8198
   -20.8132 -20.8132 -20.8130 -20.8130 -20.7983 -20.7983 -20.7970 -20.7970
   -20.7942 -20.7942 -20.7940 -20.7940 -20.7821 -20.7821 -20.7820 -20.7820
    -5.5015  -5.5015  -4.7406  -4.7406  -3.6307  -3.6307  -1.9123  -1.9123
    -1.7443  -1.7443  -1.5035  -1.5035  -0.8882  -0.8882  -0.6949  -0.6949
    -0.5802  -0.5802  -0.0073  -0.0073   0.1835   0.1835   0.7143   0.7143
     1.2200   1.2200   1.5269   1.5269   5.7441   5.7441   5.9766   5.9766
     6.2983   6.2983   6.6410   6.6410   6.9789   6.9789   7.4767   7.4767
     7.8032   7.8033

          k = 0.1667-0.5000-0.3270 ( 33612 PWs)   bands (ev):

   -49.1965 -49.1965 -48.8781 -48.8781 -48.8781 -48.8781 -48.8758 -48.8758
   -48.8758 -48.8758 -21.1421 -21.1421 -21.1073 -21.1073 -21.1072 -21.1072
   -20.8424 -20.8424 -20.8420 -20.8420 -20.8199 -20.8199 -20.8198 -20.8198
   -20.8132 -20.8132 -20.8131 -20.8131 -20.7983 -20.7983 -20.7970 -20.7970
   -20.7943 -20.7943 -20.7939 -20.7939 -20.7822 -20.7822 -20.7820 -20.7820
    -5.4923  -5.4923  -4.7603  -4.7603  -3.6337  -3.6337  -1.9151  -1.9151
    -1.6421  -1.6421  -1.3245  -1.3245  -1.2118  -1.2118  -0.7495  -0.7495
    -0.5027  -0.5027   0.0713   0.0713   0.1387   0.1387   0.6144   0.6144
     1.2952   1.2952   1.5479   1.5479   5.9171   5.9171   5.9723   5.9723
     6.3280   6.3280   6.6193   6.6193   6.8934   6.8934   7.5508   7.5508
     7.7742   7.7742

          k = 0.3333 0.3333 0.0000 ( 33684 PWs)   bands (ev):

   -49.1965 -49.1965 -48.8783 -48.8783 -48.8770 -48.8770 -48.8769 -48.8769
   -48.8756 -48.8756 -21.1424 -21.1418 -21.1079 -21.1075 -21.1070 -21.1066
   -20.8402 -20.8395 -20.8342 -20.8338 -20.8289 -20.8288 -20.8201 -20.8199
   -20.8145 -20.8141 -20.8044 -20.8041 -20.8016 -20.8011 -20.7992 -20.7980
   -20.7931 -20.7923 -20.7904 -20.7902 -20.7882 -20.7879 -20.7861 -20.7859
    -5.5421  -5.3253  -4.6877  -4.3966  -4.1406  -4.1008  -2.0721  -1.9155
    -1.8898  -1.4424  -1.3028  -1.0605  -0.9083  -0.8194  -0.6358  -0.5672
    -0.5547  -0.4129  -0.3614  -0.3528   0.4153   0.6667   0.6713   0.7506
     0.7535   1.0984   1.6005   1.6903   5.2865   5.5080   5.6836   5.7975
     6.2542   6.2895   6.6180   6.8999   6.9834   7.1803   7.2281   7.3314
     7.7865   7.8491

          k = 0.3333 0.3333 0.1635 ( 33624 PWs)   bands (ev):

   -49.1965 -49.1965 -48.8783 -48.8783 -48.8770 -48.8770 -48.8769 -48.8769
   -48.8756 -48.8756 -21.1423 -21.1419 -21.1077 -21.1074 -21.1070 -21.1068
   -20.8401 -20.8396 -20.8341 -20.8339 -20.8289 -20.8288 -20.8200 -20.8199
   -20.8144 -20.8142 -20.8044 -20.8042 -20.8015 -20.8011 -20.7991 -20.7982
   -20.7929 -20.7923 -20.7904 -20.7902 -20.7882 -20.7879 -20.7860 -20.7859
    -5.5120  -5.3585  -4.6506  -4.4460  -4.1395  -4.1139  -2.0445  -1.9867
    -1.7938  -1.3120  -1.2064  -1.0250  -0.9570  -0.7985  -0.7017  -0.6318
    -0.5881  -0.4915  -0.4113  -0.3585   0.3876   0.4880   0.5754   0.6834
     1.0087   1.2215   1.6100   1.6689   5.4269   5.6003   5.8398   5.9355
     6.1315   6.3446   6.6533   6.8171   6.9960   7.2520   7.3486   7.3896
     7.5914   7.6812

          k = 0.3333 0.3333-0.3270 ( 33598 PWs)   bands (ev):

   -49.1965 -49.1965 -48.8783 -48.8783 -48.8770 -48.8770 -48.8769 -48.8769
   -48.8756 -48.8756 -21.1421 -21.1421 -21.1072 -21.1072 -21.1072 -21.1072
   -20.8399 -20.8399 -20.8340 -20.8340 -20.8289 -20.8289 -20.8200 -20.8200
   -20.8143 -20.8143 -20.8043 -20.8043 -20.8013 -20.8013 -20.7987 -20.7987
   -20.7926 -20.7926 -20.7903 -20.7903 -20.7880 -20.7880 -20.7860 -20.7860
    -5.4367  -5.4367  -4.5543  -4.5543  -4.1323  -4.1323  -2.0483  -2.0483
    -1.4322  -1.4322  -1.0594  -1.0594  -0.9188  -0.9188  -0.7481  -0.7481
    -0.5298  -0.5298  -0.3946  -0.3946   0.2955   0.2955   0.6367   0.6367
     1.2300   1.2300   1.6300   1.6300   5.6399   5.6399   6.0043   6.0043
     6.3271   6.3271   6.6927   6.6927   7.0121   7.0121   7.3972   7.3972
     7.5708   7.5708

          k = 0.3333-0.5000 0.0000 ( 33646 PWs)   bands (ev):

   -49.1965 -49.1965 -48.8776 -48.8776 -48.8776 -48.8776 -48.8763 -48.8763
   -48.8763 -48.8763 -21.1421 -21.1421 -21.1078 -21.1078 -21.1067 -21.1067
   -20.8353 -20.8353 -20.8348 -20.8348 -20.8215 -20.8215 -20.8212 -20.8212
   -20.8114 -20.8114 -20.8112 -20.8112 -20.7985 -20.7985 -20.7979 -20.7979
   -20.7954 -20.7954 -20.7949 -20.7949 -20.7883 -20.7883 -20.7879 -20.7879
    -5.2770  -5.2770  -4.6935  -4.6935  -4.2412  -4.2412  -2.0166  -2.0166
    -1.7638  -1.7638  -1.1083  -1.1083  -0.8258  -0.8258  -0.4426  -0.4426
    -0.3744  -0.3744  -0.0251  -0.0251   0.1510   0.1510   0.7114   0.7114
     0.8367   0.8367   1.7200   1.7200   5.3651   5.3651   5.5137   5.5137
     6.4270   6.4270   6.7492   6.7492   6.9078   6.9078   7.5693   7.5693
     7.8943   7.8943

          k = 0.3333-0.5000 0.1635 ( 33640 PWs)   bands (ev):

   -49.1965 -49.1965 -48.8776 -48.8776 -48.8776 -48.8776 -48.8763 -48.8763
   -48.8763 -48.8763 -21.1421 -21.1421 -21.1076 -21.1076 -21.1069 -21.1069
   -20.8352 -20.8352 -20.8348 -20.8348 -20.8214 -20.8214 -20.8212 -20.8212
   -20.8114 -20.8114 -20.8113 -20.8113 -20.7984 -20.7984 -20.7979 -20.7979
   -20.7955 -20.7955 -20.7948 -20.7948 -20.7882 -20.7882 -20.7880 -20.7880
    -5.2679  -5.2679  -4.7014  -4.7014  -4.2547  -4.2547  -2.0994  -2.0994
    -1.5799  -1.5799  -1.0192  -1.0192  -0.8007  -0.8007  -0.6599  -0.6599
    -0.3864  -0.3864   0.0341   0.0341   0.1123   0.1123   0.4669   0.4669
     1.0614   1.0614   1.7163   1.7163   5.5295   5.5295   5.6849   5.6849
     6.2715   6.2715   6.7674   6.7674   7.0248   7.0248   7.4283   7.4283
     7.7611   7.7611

          k = 0.3333-0.5000-0.3270 ( 33628 PWs)   bands (ev):

   -49.1965 -49.1965 -48.8776 -48.8776 -48.8776 -48.8776 -48.8763 -48.8763
   -48.8763 -48.8763 -21.1421 -21.1421 -21.1073 -21.1073 -21.1072 -21.1072
   -20.8352 -20.8352 -20.8349 -20.8349 -20.8214 -20.8214 -20.8213 -20.8213
   -20.8113 -20.8113 -20.8113 -20.8113 -20.7983 -20.7983 -20.7980 -20.7980
   -20.7955 -20.7955 -20.7948 -20.7948 -20.7882 -20.7882 -20.7881 -20.7881
    -5.2584  -5.2584  -4.7101  -4.7101  -4.2675  -4.2675  -2.1554  -2.1554
    -1.2565  -1.2565  -1.1331  -1.1331  -0.8735  -0.8735  -0.6708  -0.6708
    -0.4187  -0.4187   0.0065   0.0065   0.0860   0.0860   0.3598   0.3598
     1.1721   1.1721   1.7118   1.7118   5.8066   5.8066   5.8777   5.8777
     6.0818   6.0818   6.7330   6.7330   7.0940   7.0940   7.3294   7.3294
     7.5851   7.5851

          k =-0.5000-0.5000 0.0000 ( 33664 PWs)   bands (ev):

   -49.1965 -49.1965 -48.8770 -48.8770 -48.8770 -48.8770 -48.8769 -48.8769
   -48.8769 -48.8769 -21.1421 -21.1421 -21.1078 -21.1078 -21.1067 -21.1067
   -20.8294 -20.8294 -20.8288 -20.8288 -20.8244 -20.8244 -20.8242 -20.8242
   -20.8084 -20.8084 -20.8083 -20.8083 -20.8020 -20.8020 -20.8016 -20.8016
   -20.7939 -20.7939 -20.7935 -20.7935 -20.7927 -20.7927 -20.7912 -20.7912
    -4.9876  -4.9876  -4.8200  -4.8200  -4.5211  -4.5211  -2.1401  -2.1401
    -1.5497  -1.5497  -1.3778  -1.3778  -0.4212  -0.4212  -0.3442  -0.3442
    -0.1591  -0.1591  -0.0841  -0.0841   0.1278   0.1278   0.5710   0.5710
     0.6529   0.6529   1.8055   1.8055   5.2537   5.2537   5.3025   5.3025
     6.3828   6.3828   6.7847   6.7847   7.4981   7.4981   7.5094   7.5094
     7.6501   7.6501

          k =-0.5000-0.5000 0.1635 ( 33624 PWs)   bands (ev):

   -49.1965 -49.1965 -48.8770 -48.8770 -48.8770 -48.8770 -48.8769 -48.8769
   -48.8769 -48.8769 -21.1421 -21.1421 -21.1077 -21.1077 -21.1068 -21.1068
   -20.8293 -20.8293 -20.8289 -20.8289 -20.8244 -20.8244 -20.8242 -20.8242
   -20.8084 -20.8084 -20.8083 -20.8083 -20.8019 -20.8019 -20.8016 -20.8016
   -20.7938 -20.7938 -20.7935 -20.7935 -20.7926 -20.7926 -20.7914 -20.7914
    -4.9862  -4.9862  -4.7820  -4.7820  -4.5720  -4.5720  -2.2147  -2.2147
    -1.4118  -1.4118  -1.2011  -1.2011  -0.6555  -0.6555  -0.3384  -0.3384
    -0.1686  -0.1686   0.0075   0.0075   0.1194   0.1194   0.1947   0.1947
     0.9161   0.9161   1.8025   1.8025   5.4377   5.4377   5.5017   5.5017
     6.2376   6.2376   6.8889   6.8889   7.0950   7.0950   7.6835   7.6835
     7.7752   7.7754

          k =-0.5000-0.5000-0.3270 ( 33616 PWs)   bands (ev):

   -49.1965 -49.1965 -48.8770 -48.8770 -48.8770 -48.8770 -48.8769 -48.8769
   -48.8769 -48.8769 -21.1421 -21.1421 -21.1073 -21.1073 -21.1073 -21.1073
   -20.8292 -20.8292 -20.8290 -20.8290 -20.8243 -20.8243 -20.8243 -20.8243
   -20.8084 -20.8084 -20.8084 -20.8084 -20.8018 -20.8018 -20.8017 -20.8017
   -20.7937 -20.7937 -20.7937 -20.7937 -20.7925 -20.7925 -20.7915 -20.7915
    -4.9847  -4.9847  -4.6833  -4.6833  -4.6833  -4.6833  -2.2735  -2.2735
    -1.0632  -1.0632  -1.0632  -1.0632  -0.9997  -0.9997  -0.3391  -0.3391
    -0.1740  -0.1740  -0.0617  -0.0617   0.0866   0.0866   0.0866   0.0866
     1.0216   1.0216   1.7995   1.7995   5.7016   5.7016   5.9058   5.9058
     5.9058   5.9058   6.7135   6.7135   7.3041   7.3041   7.3041   7.3041
     7.5686   7.5686

     the Fermi energy is     3.2874 ev

!    total energy              =   -1223.64057149 Ry
     estimated scf accuracy    <          6.3E-12 Ry
     smearing contrib. (-TS)   =       0.00000000 Ry
     internal energy E=F+TS    =   -1223.64057149 Ry

     The total energy is F=E-TS. E is the sum of the following terms:
     one-electron contribution =    -816.68327906 Ry
     hartree contribution      =     437.54642853 Ry
     xc contribution           =    -179.75818174 Ry
     ewald contribution        =    -456.72753400 Ry
     one-center paw contrib.   =    -208.01800523 Ry

     convergence has been achieved in   6 iterations

     Forces acting on atoms (cartesian axes, Ry/au):

     atom    1 type  1   force =     0.00000000    0.00000000    0.00000000
     atom    2 type  1   force =     0.00000000    0.00000000    0.00000000
     atom    3 type  1   force =     0.00000000    0.00000000   -0.00000000
     atom    4 type  1   force =     0.00000000    0.00000000    0.00000000
     atom    5 type  1   force =     0.00000000    0.00000000    0.00000000
     atom    6 type  1   force =     0.00000000    0.00000000    0.00000000
     atom    7 type  2   force =     0.00000000    0.00000000   -0.00000000
     atom    8 type  2   force =     0.00000000    0.00000000    0.00000000
     atom    9 type  2   force =     0.00013102    0.00013102    0.00000000
     atom   10 type  2   force =    -0.00013102    0.00013102    0.00000000
     atom   11 type  2   force =    -0.00013102   -0.00013102    0.00000000
     atom   12 type  2   force =    -0.00013102    0.00013102    0.00000000
     atom   13 type  2   force =    -0.00013102   -0.00013102    0.00000000
     atom   14 type  2   force =     0.00013102   -0.00013102    0.00000000
     atom   15 type  2   force =     0.00013102   -0.00013102    0.00000000
     atom   16 type  2   force =     0.00013102    0.00013102    0.00000000
     atom   17 type  3   force =     0.00007991    0.00087334   -0.00082599
     atom   18 type  3   force =    -0.00007991    0.00087334    0.00082599
     atom   19 type  3   force =    -0.00087334   -0.00007991    0.00082599
     atom   20 type  3   force =    -0.00007991    0.00087334   -0.00082599
     atom   21 type  3   force =    -0.00087334   -0.00007991   -0.00082599
     atom   22 type  3   force =    -0.00007991   -0.00087334   -0.00082599
     atom   23 type  3   force =     0.00087334   -0.00007991   -0.00082599
     atom   24 type  3   force =    -0.00007991   -0.00087334    0.00082599
     atom   25 type  3   force =     0.00087334   -0.00007991    0.00082599
     atom   26 type  3   force =    -0.00087334    0.00007991   -0.00082599
     atom   27 type  3   force =     0.00007991    0.00087334    0.00082599
     atom   28 type  3   force =    -0.00087334    0.00007991    0.00082599
     atom   29 type  3   force =     0.00007991   -0.00087334    0.00082599
     atom   30 type  3   force =     0.00087334    0.00007991    0.00082599
     atom   31 type  3   force =     0.00007991   -0.00087334   -0.00082599
     atom   32 type  3   force =     0.00087334    0.00007991   -0.00082599
     atom   33 type  3   force =     0.00000000    0.00000000    0.00089709
     atom   34 type  3   force =     0.00000000    0.00000000   -0.00089709
     atom   35 type  3   force =     0.00000000    0.00000000    0.00089709
     atom   36 type  3   force =     0.00000000    0.00000000   -0.00089709
     atom   37 type  3   force =     0.00031562    0.00079197    0.00000000
     atom   38 type  3   force =    -0.00031562    0.00079197   -0.00000000
     atom   39 type  3   force =    -0.00079197   -0.00031562    0.00000000
     atom   40 type  3   force =    -0.00031562   -0.00079197    0.00000000
     atom   41 type  3   force =     0.00079197   -0.00031562   -0.00000000
     atom   42 type  3   force =    -0.00079197    0.00031562   -0.00000000
     atom   43 type  3   force =     0.00031562   -0.00079197   -0.00000000
     atom   44 type  3   force =     0.00079197    0.00031562    0.00000000

     Total force =     0.005704     Total SCF correction =     0.000005


     Computing stress (Cartesian axis) and pressure

          total   stress  (Ry/bohr**3)                   (kbar)     P=       13.32
   0.00009117   0.00000000   0.00000000           13.41        0.00        0.00
   0.00000000   0.00009117   0.00000000            0.00       13.41        0.00
   0.00000000   0.00000000   0.00008937            0.00        0.00       13.15

     Energy error            =      6.3E-05 Ry
     Gradient error          =      9.0E-04 Ry/Bohr

     bfgs converged in   8 scf cycles and   7 bfgs steps
     (criteria: energy <  1.0E-04 Ry, force <  1.0E-03 Ry/Bohr)

     End of BFGS Geometry Optimization

     Final energy             =   -1223.6405714933 Ry

     File temp/na5alh14.bfgs deleted, as requested
Begin final coordinates

ATOMIC_POSITIONS (crystal)
Al            0.0000000000        0.0000000000        0.5000000000
Al            0.5000000000        0.5000000000       -0.0000000000
Al            0.0000000000        0.5000000000        0.0000000000
Al            0.5000000000        0.0000000000        0.5000000000
Al            0.0000000000        0.5000000000        0.5000000000
Al            0.5000000000        0.0000000000       -0.0000000000
Na            0.0000000000        0.0000000000       -0.0000000000
Na            0.5000000000        0.5000000000        0.5000000000
Na            0.7867926915        0.2867926915        0.2500000000
Na            0.7132073085        0.7867926915        0.2500000000
Na            0.2132073085        0.7132073085        0.2500000000
Na            0.7132073085        0.7867926915        0.7500000000
Na            0.2132073085        0.7132073085        0.7500000000
Na            0.2867926915        0.2132073085        0.2500000000
Na            0.2867926915        0.2132073085        0.7500000000
Na            0.7867926915        0.2867926915        0.7500000000
H             0.0448119173        0.3192088292        0.1184175414
H             0.4551880827        0.8192088292        0.3815824586
H             0.1807911708        0.4551880827        0.3815824586
H             0.4551880827        0.8192088292        0.6184175414
H             0.1807911708        0.4551880827        0.6184175414
H             0.9551880827        0.6807911708        0.1184175414
H             0.3192088292        0.9551880827        0.1184175414
H             0.9551880827        0.6807911708        0.8815824586
H             0.3192088292        0.9551880827        0.8815824586
H             0.6807911708        0.0448119173        0.1184175414
H             0.0448119173        0.3192088292        0.8815824586
H             0.6807911708        0.0448119173        0.8815824586
H             0.5448119173        0.1807911708        0.3815824586
H             0.8192088292        0.5448119173        0.3815824586
H             0.5448119173        0.1807911708        0.6184175414
H             0.8192088292        0.5448119173        0.6184175414
H             0.0000000000        0.0000000000        0.3285153115
H             0.5000000000        0.5000000000        0.1714846885
H             0.5000000000        0.5000000000        0.8285153115
H             0.0000000000        0.0000000000        0.6714846885
H             0.2520913161        0.5781773156       -0.0000000000
H             0.2479086839        0.0781773156        0.5000000000
H             0.9218226844        0.2479086839        0.5000000000
H             0.7479086839        0.4218226844       -0.0000000000
H             0.5781773156        0.7479086839       -0.0000000000
H             0.4218226844        0.2520913161       -0.0000000000
H             0.7520913161        0.9218226844        0.5000000000
H             0.0781773156        0.7520913161        0.5000000000
End final coordinates


 
     init_run     :      1.06s CPU      1.18s WALL (       1 calls)
     electrons    :    107.19s CPU    109.64s WALL (       8 calls)
     update_pot   :      1.28s CPU      1.31s WALL (       7 calls)
     forces       :      3.54s CPU      3.62s WALL (       8 calls)
     stress       :     17.90s CPU     17.98s WALL (       8 calls)

     Called by init_run:
     wfcinit      :      0.66s CPU      0.71s WALL (       1 calls)
     potinit      :      0.15s CPU      0.17s WALL (       1 calls)
     hinit0       :      0.09s CPU      0.12s WALL (       1 calls)

     Called by electrons:
     c_bands      :     89.76s CPU     91.54s WALL (      56 calls)
     sum_band     :     13.36s CPU     13.61s WALL (      56 calls)
     v_of_rho     :      0.60s CPU      0.62s WALL (      57 calls)
     newd         :      0.86s CPU      0.94s WALL (      57 calls)
     PAW_pot      :      3.05s CPU      3.26s WALL (      64 calls)
     mix_rho      :      0.15s CPU      0.17s WALL (      56 calls)

     Called by c_bands:
     init_us_2    :      2.68s CPU      2.72s WALL (    1360 calls)
     init_us_2:cp :      2.67s CPU      2.71s WALL (    1360 calls)
     cegterg      :     78.51s CPU     79.90s WALL (     560 calls)

     Called by *egterg:
     cdiaghg      :     12.63s CPU     12.74s WALL (    2049 calls)
     h_psi        :     47.84s CPU     48.86s WALL (    2199 calls)
     s_psi        :      4.38s CPU      4.45s WALL (    2199 calls)
     g_psi        :      0.19s CPU      0.20s WALL (    1629 calls)

     Called by h_psi:
     h_psi:calbec :      5.46s CPU      5.59s WALL (    2199 calls)
     vloc_psi     :     37.24s CPU     38.08s WALL (    2199 calls)
     add_vuspsi   :      4.67s CPU      4.71s WALL (    2199 calls)

     General routines
     calbec       :      9.37s CPU      9.54s WALL (    3229 calls)
     fft          :      0.40s CPU      0.43s WALL (     939 calls)
     ffts         :      0.07s CPU      0.07s WALL (     113 calls)
     fftw         :     41.09s CPU     41.91s WALL (  273594 calls)
     interpolate  :      0.06s CPU      0.06s WALL (      57 calls)
 
     Parallel routines
 
     PWSCF        :   2m12.27s CPU   2m15.35s WALL

 
   This run was terminated on:  19:18:29  31Oct2023            

=------------------------------------------------------------------------------=
   JOB DONE.
=------------------------------------------------------------------------------=
Job execution finished at: Tue Oct 31 19:18:29 IST 2023
