==========================================
SLURM_CLUSTER_NAME = paramganga
SLURM_ARRAY_JOB_ID = 
SLURM_ARRAY_TASK_ID = 
SLURM_ARRAY_TASK_COUNT = 
SLURM_ARRAY_TASK_MAX = 
SLURM_ARRAY_TASK_MIN = 
SLURM_JOB_ACCOUNT = iitr
SLURM_JOB_ID = 168271
SLURM_JOB_NAME = 19280
SLURM_JOB_NODELIST = cn[202-204]
SLURM_JOB_USER = garima.iitr
SLURM_JOB_UID = 38339
SLURM_JOB_PARTITION = small
SLURM_TASK_PID = 1716
SLURM_SUBMIT_DIR = /home/garima.iitr/.cache/.es/compmat/na3alh6
SLURM_CPUS_ON_NODE = 48
SLURM_NTASKS = 144
SLURM_TASK_PID = 1716
==========================================
cn202
 
:: initializing oneAPI environment ...
   slurm_script: BASH_VERSION = 4.2.46(2)-release
   args: Using "$@" for setvars.sh arguments: 
:: advisor -- latest
:: ccl -- latest
:: clck -- latest
:: compiler -- latest
:: dal -- latest
:: debugger -- latest
:: dev-utilities -- latest
:: dnnl -- latest
:: dpcpp-ct -- latest
:: dpl -- latest
:: inspector -- latest
:: intelpython -- latest
:: ipp -- latest
:: ippcp -- latest
:: ipp -- latest
:: itac -- latest
:: mkl -- latest
:: mpi -- latest
:: tbb -- latest
:: vpl -- latest
:: vtune -- latest
:: oneAPI environment initialized ::
 
Job execution start: Tue Oct 31 19:57:41 IST 2023
Job submitted by garima.iitr
The job ID is:168271

     Program PWSCF v.7.1 starts on 31Oct2023 at 19:57:45 

     This program is part of the open-source Quantum ESPRESSO suite
     for quantum simulation of materials; please cite
         "P. Giannozzi et al., J. Phys.:Condens. Matter 21 395502 (2009);
         "P. Giannozzi et al., J. Phys.:Condens. Matter 29 465901 (2017);
         "P. Giannozzi et al., J. Chem. Phys. 152 154105 (2020);
          URL http://www.quantum-espresso.org", 
     in publications or presentations arising from this work. More details at
     http://www.quantum-espresso.org/quote

     Parallel version (MPI & OpenMP), running on     144 processor cores
     Number of MPI processes:               144
     Threads/MPI process:                     1

     MPI processes distributed on     3 nodes
     169082 MiB available memory on the printing compute node when the environment starts
 
     Reading input from na3alh6.in

     Current dimensions of program PWSCF are:
     Max number of different atomic species (ntypx) = 10
     Max number of k-points (npk) =  40000
     Max angular momentum in pseudopotentials (lmaxx) =  4
     file Al.pbe-n-kjpaw_psl.1.0.0.UPF: wavefunction(s)  3S 3P renormalized

     IMPORTANT: XC functional enforced from input :
     Exchange-correlation= PBE
                           (   1   4   3   4   0   0   0)
     Any further DFT definition will be discarded
     Please, verify this is what you really want

     Message from routine setup:
     using ibrav=0 with symmetry is DISCOURAGED, use correct ibrav instead
 
     K-points division:     npool     =       3
     R & G space division:  proc/nbgrp/npool/nimage =      48
     Subspace diagonalization in iterative solution of the eigenvalue problem:
     a serial algorithm will be used

 
     Parallelization info
     --------------------
     sticks:   dense  smooth     PW     G-vecs:    dense   smooth      PW
     Min          64      51     14                 3815     2728     416
     Max          65      52     15                 3823     2736     423
     Sum        3087    2479    707               183223   131109   20173
 
     Using Slab Decomposition
 


     bravais-lattice index     =            0
     lattice parameter (alat)  =      10.0031  a.u.
     unit-cell volume          =    1494.3871 (a.u.)^3
     number of atoms/cell      =           20
     number of atomic types    =            3
     number of electrons       =        72.00
     number of Kohn-Sham states=           43
     kinetic-energy cutoff     =      75.0000  Ry
     charge density cutoff     =     375.0000  Ry
     scf convergence threshold =      1.0E-08
     mixing beta               =       0.7000
     number of iterations used =            8  plain     mixing
     energy convergence thresh.=      1.0E-04
     force convergence thresh. =      1.0E-03
     press convergence thresh. =      5.0E-01
     Exchange-correlation= PBE
                           (   1   4   3   4   0   0   0)
     nstep                     =           50


     celldm(1)=  10.003076  celldm(2)=   0.000000  celldm(3)=   0.000000
     celldm(4)=   0.000000  celldm(5)=   0.000000  celldm(6)=   0.000000

     crystal axes: (cart. coord. in units of alat)
               a(1) = (   1.000000   0.000000   0.000000 )  
               a(2) = (   0.000000   1.037180   0.000000 )  
               a(3) = (  -0.999562   0.000000   1.439488 )  

     reciprocal axes: (cart. coord. in units 2 pi/alat)
               b(1) = (  1.000000  0.000000  0.694387 )  
               b(2) = (  0.000000  0.964153  0.000000 )  
               b(3) = (  0.000000  0.000000  0.694691 )  


     PseudoPot. # 1 for Al read from file:
     /home/garima.iitr/.cache/.es/compmat/na3alh6/Al.pbe-n-kjpaw_psl.1.0.0.UPF
     MD5 check sum: 502b6b27b9c6270cab5dd1084b96fa6d
     Pseudo is Projector augmented-wave + core cor, Zval =  3.0
     Generated using &quot;atomic&quot; code by A. Dal Corso  v.6.3
     Shape of augmentation charge: PSQ
     Using radial grid of 1135 points,  6 beta functions with: 
                l(1) =   0
                l(2) =   0
                l(3) =   1
                l(4) =   1
                l(5) =   2
                l(6) =   2
     Q(r) pseudized with 0 coefficients 


     PseudoPot. # 2 for H  read from file:
     /home/garima.iitr/.cache/.es/compmat/na3alh6/H.pbe-rrkjus_psl.1.0.0.UPF
     MD5 check sum: 3f4114867bd07edc7f1424d066fc1888
     Pseudo is Ultrasoft, Zval =  1.0
     Generated using &quot;atomic&quot; code by A. Dal Corso  v.6.3MaX
     Using radial grid of  929 points,  2 beta functions with: 
                l(1) =   0
                l(2) =   0
     Q(r) pseudized with 0 coefficients 


     PseudoPot. # 3 for Na read from file:
     /home/garima.iitr/.cache/.es/compmat/na3alh6/na_pbe_v1.5.uspp.F.UPF
     MD5 check sum: 44600605ef58000f06b90626533354dc
     Pseudo is Ultrasoft, Zval =  9.0
     Generated by new atomic code, or converted to UPF format
     Using radial grid of  819 points,  5 beta functions with: 
                l(1) =   0
                l(2) =   0
                l(3) =   1
                l(4) =   1
                l(5) =   2
     Q(r) pseudized with  8 coefficients,  rinner =    1.250   1.250   1.250
                                                       1.250   1.250

     atomic species   valence    mass     pseudopotential
        Al             3.00    26.98100     Al( 1.00)
        H              1.00     1.00750     H ( 1.00)
        Na             9.00    22.98900     Na( 1.00)

      4 Sym. Ops., with inversion, found ( 2 have fractional translation)



   Cartesian axes

     site n.     atom                  positions (alat units)
         1           Al  tau(   1) = (   0.5000000   0.0000000   0.0000000  )
         2           Al  tau(   2) = (   0.0002188   0.5185901   0.7197441  )
         3           Na  tau(   3) = (  -0.4997812   0.0000000   0.7197441  )
         4           Na  tau(   4) = (   0.0000000   0.5185901   0.0000000  )
         5           Na  tau(   5) = (   0.0110742   0.9883355   0.3549382  )
         6           Na  tau(   6) = (  -0.0106366   0.0488448   1.0845501  )
         7           Na  tau(   7) = (   0.4891446   0.4697454   0.3648060  )
         8           Na  tau(   8) = (  -0.4887070   0.5674349   1.0746823  )
         9           H   tau(   9) = (  -0.1613677   0.7964769   0.8106648  )
        10           H   tau(  10) = (   0.1618054   0.2407034   0.6288235  )
        11           H   tau(  11) = (  -0.3379758   0.2778867   1.3485677  )
        12           H   tau(  12) = (   0.3384135   0.7592935   0.0909206  )
        13           H   tau(  13) = (  -0.2268984   0.8607016   1.3767990  )
        14           H   tau(  14) = (   0.2273360   0.1764787   0.0626893  )
        15           H   tau(  15) = (  -0.2724452   0.3421115   0.7824335  )
        16           H   tau(  16) = (   0.2728828   0.6950688   0.6570548  )
        17           H   tau(  17) = (  -0.5995130   0.9876876   1.1266421  )
        18           H   tau(  18) = (   0.5999506   0.0494927   0.3128462  )
        19           H   tau(  19) = (   0.1001694   0.4690974   1.0325904  )
        20           H   tau(  20) = (  -0.0997318   0.5680828   0.4068979  )

     number of k points=    56  Marzari-Vanderbilt smearing, width (Ry)=  0.0050
                       cart. coord. in units 2pi/alat
        k(    1) = (   0.0000000   0.0000000   0.0000000), wk =   0.0138889
        k(    2) = (   0.0000000   0.0000000   0.1736728), wk =   0.0277778
        k(    3) = (   0.0000000   0.0000000  -0.3473457), wk =   0.0138889
        k(    4) = (   0.0000000   0.1606921   0.0000000), wk =   0.0277778
        k(    5) = (   0.0000000   0.1606921   0.1736728), wk =   0.0555556
        k(    6) = (   0.0000000   0.1606921  -0.3473457), wk =   0.0277778
        k(    7) = (   0.0000000   0.3213842   0.0000000), wk =   0.0277778
        k(    8) = (   0.0000000   0.3213842   0.1736728), wk =   0.0555556
        k(    9) = (   0.0000000   0.3213842  -0.3473457), wk =   0.0277778
        k(   10) = (   0.0000000  -0.4820763   0.0000000), wk =   0.0138889
        k(   11) = (   0.0000000  -0.4820763   0.1736728), wk =   0.0277778
        k(   12) = (   0.0000000  -0.4820763  -0.3473457), wk =   0.0138889
        k(   13) = (   0.1666667   0.0000000   0.1157312), wk =   0.0277778
        k(   14) = (   0.1666667   0.0000000   0.2894040), wk =   0.0277778
        k(   15) = (   0.1666667   0.0000000  -0.2316144), wk =   0.0277778
        k(   16) = (   0.1666667   0.0000000  -0.0579416), wk =   0.0277778
        k(   17) = (   0.1666667   0.1606921   0.1157312), wk =   0.0555556
        k(   18) = (   0.1666667   0.1606921   0.2894040), wk =   0.0555556
        k(   19) = (   0.1666667   0.1606921  -0.2316144), wk =   0.0555556
        k(   20) = (   0.1666667   0.1606921  -0.0579416), wk =   0.0555556
        k(   21) = (   0.1666667   0.3213842   0.1157312), wk =   0.0555556
        k(   22) = (   0.1666667   0.3213842   0.2894040), wk =   0.0555556
        k(   23) = (   0.1666667   0.3213842  -0.2316144), wk =   0.0555556
        k(   24) = (   0.1666667   0.3213842  -0.0579416), wk =   0.0555556
        k(   25) = (   0.1666667  -0.4820763   0.1157312), wk =   0.0277778
        k(   26) = (   0.1666667  -0.4820763   0.2894040), wk =   0.0277778
        k(   27) = (   0.1666667  -0.4820763  -0.2316144), wk =   0.0277778
        k(   28) = (   0.1666667  -0.4820763  -0.0579416), wk =   0.0277778
        k(   29) = (   0.3333333   0.0000000   0.2314624), wk =   0.0277778
        k(   30) = (   0.3333333   0.0000000   0.4051353), wk =   0.0277778
        k(   31) = (   0.3333333   0.0000000  -0.1158832), wk =   0.0277778
        k(   32) = (   0.3333333   0.0000000   0.0577896), wk =   0.0277778
        k(   33) = (   0.3333333   0.1606921   0.2314624), wk =   0.0555556
        k(   34) = (   0.3333333   0.1606921   0.4051353), wk =   0.0555556
        k(   35) = (   0.3333333   0.1606921  -0.1158832), wk =   0.0555556
        k(   36) = (   0.3333333   0.1606921   0.0577896), wk =   0.0555556
        k(   37) = (   0.3333333   0.3213842   0.2314624), wk =   0.0555556
        k(   38) = (   0.3333333   0.3213842   0.4051353), wk =   0.0555556
        k(   39) = (   0.3333333   0.3213842  -0.1158832), wk =   0.0555556
        k(   40) = (   0.3333333   0.3213842   0.0577896), wk =   0.0555556
        k(   41) = (   0.3333333  -0.4820763   0.2314624), wk =   0.0277778
        k(   42) = (   0.3333333  -0.4820763   0.4051353), wk =   0.0277778
        k(   43) = (   0.3333333  -0.4820763  -0.1158832), wk =   0.0277778
        k(   44) = (   0.3333333  -0.4820763   0.0577896), wk =   0.0277778
        k(   45) = (  -0.5000000   0.0000000  -0.3471936), wk =   0.0138889
        k(   46) = (  -0.5000000   0.0000000  -0.1735208), wk =   0.0277778
        k(   47) = (  -0.5000000   0.0000000  -0.6945393), wk =   0.0138889
        k(   48) = (  -0.5000000   0.1606921  -0.3471936), wk =   0.0277778
        k(   49) = (  -0.5000000   0.1606921  -0.1735208), wk =   0.0555556
        k(   50) = (  -0.5000000   0.1606921  -0.6945393), wk =   0.0277778
        k(   51) = (  -0.5000000   0.3213842  -0.3471936), wk =   0.0277778
        k(   52) = (  -0.5000000   0.3213842  -0.1735208), wk =   0.0555556
        k(   53) = (  -0.5000000   0.3213842  -0.6945393), wk =   0.0277778
        k(   54) = (  -0.5000000  -0.4820763  -0.3471936), wk =   0.0138889
        k(   55) = (  -0.5000000  -0.4820763  -0.1735208), wk =   0.0277778
        k(   56) = (  -0.5000000  -0.4820763  -0.6945393), wk =   0.0138889

     Dense  grid:   183223 G-vectors     FFT dimensions: (  64,  64, 120)

     Smooth grid:   131109 G-vectors     FFT dimensions: (  60,  60, 100)

     Estimated max dynamical RAM per process >      21.52 MB

     Estimated total dynamical RAM >       2.94 GB

     Initial potential from superposition of free atoms

     starting charge      71.9576, renormalised to      72.0000
     Starting wfcs are   50 randomized atomic wfcs
     Checking if some PAW data can be deallocated... 

     total cpu time spent up to now is        1.2 secs

     Self-consistent Calculation

     iteration #  1     ecut=    75.00 Ry     beta= 0.70
     Davidson diagonalization with overlap
     ethr =  1.00E-02,  avg # of iterations =  5.6

     total cpu time spent up to now is        2.5 secs

     total energy              =    -665.23392460 Ry
     estimated scf accuracy    <       0.93404574 Ry

     iteration #  2     ecut=    75.00 Ry     beta= 0.70
     Davidson diagonalization with overlap
     ethr =  1.30E-03,  avg # of iterations =  2.0

     total cpu time spent up to now is        3.4 secs

     total energy              =    -665.33088147 Ry
     estimated scf accuracy    <       0.02050761 Ry

     iteration #  3     ecut=    75.00 Ry     beta= 0.70
     Davidson diagonalization with overlap
     ethr =  2.85E-05,  avg # of iterations =  9.3

     total cpu time spent up to now is        5.1 secs

     total energy              =    -665.33718414 Ry
     estimated scf accuracy    <       0.00177302 Ry

     iteration #  4     ecut=    75.00 Ry     beta= 0.70
     Davidson diagonalization with overlap
     ethr =  2.46E-06,  avg # of iterations =  3.6

     total cpu time spent up to now is        6.3 secs

     total energy              =    -665.33760888 Ry
     estimated scf accuracy    <       0.00009502 Ry

     iteration #  5     ecut=    75.00 Ry     beta= 0.70
     Davidson diagonalization with overlap
     ethr =  1.32E-07,  avg # of iterations =  3.7

     total cpu time spent up to now is        7.4 secs

     total energy              =    -665.33763189 Ry
     estimated scf accuracy    <       0.00000945 Ry

     iteration #  6     ecut=    75.00 Ry     beta= 0.70
     Davidson diagonalization with overlap
     ethr =  1.31E-08,  avg # of iterations =  2.0

     total cpu time spent up to now is        8.3 secs

     total energy              =    -665.33763299 Ry
     estimated scf accuracy    <       0.00000017 Ry

     iteration #  7     ecut=    75.00 Ry     beta= 0.70
     Davidson diagonalization with overlap
     ethr =  2.36E-10,  avg # of iterations =  4.0

     total cpu time spent up to now is        9.5 secs

     total energy              =    -665.33763307 Ry
     estimated scf accuracy    <       0.00000006 Ry

     iteration #  8     ecut=    75.00 Ry     beta= 0.70
     Davidson diagonalization with overlap
     ethr =  8.26E-11,  avg # of iterations =  3.0

     total cpu time spent up to now is       10.4 secs

     End of self-consistent calculation

          k = 0.0000 0.0000 0.0000 ( 16357 PWs)   bands (ev):

   -49.1121 -49.1114 -49.1108 -49.1104 -48.9893 -48.9891 -21.0638 -21.0590
   -21.0557 -21.0497 -21.0471 -21.0464 -21.0435 -21.0421 -21.0317 -21.0277
   -21.0260 -21.0233 -20.9260 -20.9209 -20.9203 -20.9186 -20.9125 -20.9102
    -5.1713  -4.1740  -1.8568  -1.1051  -0.9935  -0.4455  -0.4078  -0.3896
     0.0787   0.8918   1.1890   1.5831   4.5236   5.4552   6.1353   6.8569
     7.0402   7.4097   7.7786

          k = 0.0000 0.0000 0.1737 ( 16402 PWs)   bands (ev):

   -49.1120 -49.1115 -49.1107 -49.1104 -48.9893 -48.9891 -21.0626 -21.0582
   -21.0551 -21.0502 -21.0488 -21.0473 -21.0434 -21.0406 -21.0312 -21.0277
   -21.0269 -21.0241 -20.9249 -20.9213 -20.9196 -20.9184 -20.9129 -20.9112
    -5.0616  -4.3770  -1.6281  -1.0570  -0.9247  -0.5870  -0.5701  -0.5147
     0.2900   1.0020   1.0862   1.4843   4.8800   5.6269   6.1767   6.6051
     6.7451   7.3560   7.5615

          k = 0.0000 0.0000-0.3473 ( 16392 PWs)   bands (ev):

   -49.1117 -49.1117 -49.1106 -49.1106 -48.9892 -48.9892 -21.0593 -21.0593
   -21.0540 -21.0540 -21.0472 -21.0472 -21.0421 -21.0421 -21.0293 -21.0293
   -21.0261 -21.0261 -20.9228 -20.9228 -20.9185 -20.9185 -20.9129 -20.9129
    -4.7603  -4.7603  -1.1775  -1.1775  -0.7620  -0.7620  -0.7383  -0.7383
     0.7332   0.7332   1.2475   1.2475   5.6945   5.6945   6.0783   6.0783
     6.8334   6.8335   7.4171

          k = 0.0000 0.1607 0.0000 ( 16343 PWs)   bands (ev):

   -49.1120 -49.1113 -49.1109 -49.1104 -48.9893 -48.9891 -21.0639 -21.0579
   -21.0538 -21.0527 -21.0473 -21.0467 -21.0424 -21.0399 -21.0321 -21.0286
   -21.0269 -21.0249 -20.9244 -20.9205 -20.9200 -20.9188 -20.9130 -20.9110
    -5.0789  -4.1737  -1.7731  -1.4003  -0.9393  -0.7188  -0.5577  -0.4061
     0.4031   0.9110   1.1971   1.5267   4.8498   5.5943   6.0709   6.7322
     7.0808   7.3992   7.7350

          k = 0.0000 0.1607 0.1737 ( 16375 PWs)   bands (ev):

   -49.1119 -49.1114 -49.1108 -49.1105 -48.9893 -48.9891 -21.0624 -21.0572
   -21.0538 -21.0509 -21.0495 -21.0470 -21.0430 -21.0397 -21.0318 -21.0284
   -21.0280 -21.0254 -20.9237 -20.9209 -20.9195 -20.9185 -20.9134 -20.9117
    -4.9743  -4.3460  -1.7436  -1.1736  -1.0258  -0.8715  -0.5025  -0.4379
     0.5168   0.9792   1.1228   1.4353   5.0522   5.7184   6.1993   6.6627
     6.8231   7.0376   7.5440

          k = 0.0000 0.1607-0.3473 ( 16422 PWs)   bands (ev):

   -49.1117 -49.1117 -49.1106 -49.1106 -48.9892 -48.9892 -21.0586 -21.0586
   -21.0532 -21.0532 -21.0472 -21.0472 -21.0424 -21.0424 -21.0303 -21.0303
   -21.0268 -21.0268 -20.9221 -20.9221 -20.9186 -20.9186 -20.9131 -20.9131
    -4.6916  -4.6916  -1.5041  -1.5041  -0.7099  -0.7099  -0.6535  -0.6535
     0.8236   0.8236   1.2180   1.2180   5.5983   5.5983   6.1978   6.1978
     6.9869   6.9869   7.5450

          k = 0.0000 0.3214 0.0000 ( 16414 PWs)   bands (ev):

   -49.1117 -49.1111 -49.1111 -49.1106 -48.9893 -48.9892 -21.0634 -21.0580
   -21.0541 -21.0498 -21.0485 -21.0457 -21.0406 -21.0381 -21.0326 -21.0314
   -21.0291 -21.0277 -20.9212 -20.9198 -20.9193 -20.9192 -20.9142 -20.9129
    -4.8247  -4.2460  -1.7487  -1.5383  -1.2683  -0.8450  -0.7800  -0.4468
     0.7382   1.0236   1.1490   1.3646   5.4899   5.7582   6.3227   6.4377
     7.3256   7.3396   7.4993

          k = 0.0000 0.3214 0.1737 ( 16378 PWs)   bands (ev):

   -49.1116 -49.1112 -49.1110 -49.1107 -48.9893 -48.9892 -21.0614 -21.0567
   -21.0532 -21.0500 -21.0488 -21.0458 -21.0420 -21.0396 -21.0338 -21.0309
   -21.0296 -21.0275 -20.9213 -20.9202 -20.9194 -20.9186 -20.9142 -20.9128
    -4.7408  -4.3245  -2.0377  -1.6487  -1.0287  -0.7422  -0.5568  -0.4737
     0.7697   0.9799   1.1301   1.3027   5.2952   5.6569   6.6349   6.7325
     6.8618   7.3229   7.5442

          k = 0.0000 0.3214-0.3473 ( 16386 PWs)   bands (ev):

   -49.1114 -49.1114 -49.1108 -49.1108 -48.9892 -48.9892 -21.0574 -21.0574
   -21.0515 -21.0515 -21.0467 -21.0467 -21.0428 -21.0428 -21.0333 -21.0333
   -21.0281 -21.0281 -20.9210 -20.9210 -20.9188 -20.9188 -20.9133 -20.9133
    -4.5317  -4.5317  -2.0119  -2.0119  -0.6474  -0.6474  -0.5129  -0.5129
     0.8805   0.8805   1.1638   1.1638   5.3446   5.3446   6.7950   6.7950
     7.1516   7.1516   7.6322

          k = 0.0000-0.4821 0.0000 ( 16388 PWs)   bands (ev):

   -49.1114 -49.1114 -49.1109 -49.1109 -48.9893 -48.9893 -21.0614 -21.0614
   -21.0507 -21.0507 -21.0466 -21.0466 -21.0390 -21.0390 -21.0323 -21.0323
   -21.0301 -21.0301 -20.9196 -20.9196 -20.9190 -20.9190 -20.9146 -20.9146
    -4.4935  -4.4935  -1.6945  -1.6945  -1.2008  -1.2008  -0.5877  -0.5877
     0.9599   0.9599   1.2046   1.2046   5.7844   5.7844   6.4705   6.4705
     7.0324   7.0324   8.1472

          k = 0.0000-0.4821 0.1737 ( 16422 PWs)   bands (ev):

   -49.1113 -49.1113 -49.1110 -49.1110 -48.9893 -48.9893 -21.0594 -21.0594
   -21.0509 -21.0509 -21.0458 -21.0458 -21.0410 -21.0410 -21.0339 -21.0339
   -21.0292 -21.0292 -20.9202 -20.9202 -20.9189 -20.9189 -20.9139 -20.9139
    -4.4653  -4.4653  -2.0422  -2.0422  -0.7991  -0.7991  -0.5588  -0.5588
     0.9012   0.9012   1.1889   1.1889   5.4618   5.4618   6.6134   6.6134
     7.5605   7.5606   8.0503

          k = 0.0000-0.4821-0.3473 ( 16396 PWs)   bands (ev):

   -49.1111 -49.1111 -49.1111 -49.1111 -48.9893 -48.9893 -21.0569 -21.0569
   -21.0506 -21.0506 -21.0462 -21.0462 -21.0426 -21.0426 -21.0355 -21.0355
   -21.0286 -21.0286 -20.9207 -20.9207 -20.9188 -20.9188 -20.9133 -20.9133
    -4.4353  -4.4353  -2.2477  -2.2477  -0.6164  -0.6164  -0.4400  -0.4400
     0.8488   0.8488   1.1525   1.1525   5.2386   5.2386   6.8881   6.8881
     7.3573   7.3573   8.1775

          k = 0.1667 0.0000 0.1157 ( 16395 PWs)   bands (ev):

   -49.1119 -49.1114 -49.1108 -49.1105 -48.9893 -48.9891 -21.0620 -21.0602
   -21.0523 -21.0522 -21.0480 -21.0474 -21.0412 -21.0412 -21.0317 -21.0302
   -21.0270 -21.0246 -20.9233 -20.9208 -20.9203 -20.9178 -20.9139 -20.9109
    -5.0237  -4.2359  -1.7719  -1.1880  -1.0434  -0.8562  -0.4486  -0.4481
     0.3462   0.9111   1.1598   1.5353   4.9218   5.6659   6.2753   6.5889
     6.9364   7.1911   7.2229

          k = 0.1667 0.0000 0.2894 ( 16379 PWs)   bands (ev):

   -49.1117 -49.1116 -49.1107 -49.1106 -48.9892 -48.9892 -21.0597 -21.0595
   -21.0530 -21.0526 -21.0481 -21.0460 -21.0430 -21.0414 -21.0309 -21.0307
   -21.0270 -21.0261 -20.9218 -20.9217 -20.9203 -20.9177 -20.9140 -20.9116
    -4.7937  -4.5576  -1.5772  -1.3145  -0.8896  -0.7957  -0.6085  -0.5810
     0.6395   0.9576   1.0320   1.4125   5.5218   5.5483   6.2576   6.3916
     6.5088   7.3266   7.5238

          k = 0.1667 0.0000-0.2316 ( 16381 PWs)   bands (ev):

   -49.1118 -49.1115 -49.1107 -49.1105 -48.9893 -48.9892 -21.0614 -21.0563
   -21.0554 -21.0503 -21.0482 -21.0464 -21.0455 -21.0416 -21.0309 -21.0288
   -21.0275 -21.0254 -20.9238 -20.9207 -20.9199 -20.9194 -20.9118 -20.9118
    -4.8832  -4.4473  -1.6200  -1.2184  -1.0183  -0.8266  -0.6482  -0.4554
     0.5995   0.9599   1.1975   1.2742   5.1067   6.0398   6.2431   6.4831
     6.6231   6.9635   7.3755

          k = 0.1667 0.0000-0.0579 ( 16406 PWs)   bands (ev):

   -49.1120 -49.1113 -49.1108 -49.1104 -48.9893 -48.9891 -21.0626 -21.0592
   -21.0538 -21.0512 -21.0478 -21.0464 -21.0428 -21.0426 -21.0311 -21.0292
   -21.0268 -21.0242 -20.9244 -20.9206 -20.9201 -20.9191 -20.9125 -20.9105
    -5.0567  -4.1797  -1.7493  -1.3342  -1.0453  -0.7347  -0.4678  -0.4497
     0.3273   0.9911   1.1381   1.4845   4.8301   5.7264   6.1491   6.5676
     7.0456   7.4156   7.5904

          k = 0.1667 0.1607 0.1157 ( 16391 PWs)   bands (ev):

   -49.1119 -49.1113 -49.1109 -49.1105 -48.9893 -48.9892 -21.0642 -21.0568
   -21.0537 -21.0522 -21.0501 -21.0455 -21.0411 -21.0396 -21.0324 -21.0315
   -21.0271 -21.0244 -20.9225 -20.9209 -20.9199 -20.9181 -20.9141 -20.9112
    -4.9366  -4.2186  -1.7487  -1.2755  -1.1010  -0.9730  -0.6552  -0.4891
     0.5804   0.8520   1.1957   1.4762   5.1700   5.8501   6.1480   6.5742
     6.8796   7.2181   7.6341

          k = 0.1667 0.1607 0.2894 ( 16392 PWs)   bands (ev):

   -49.1117 -49.1115 -49.1107 -49.1106 -48.9893 -48.9892 -21.0605 -21.0579
   -21.0538 -21.0514 -21.0486 -21.0458 -21.0434 -21.0412 -21.0325 -21.0311
   -21.0273 -21.0254 -20.9215 -20.9210 -20.9201 -20.9179 -20.9141 -20.9120
    -4.7200  -4.5022  -1.6614  -1.4288  -1.0646  -0.9030  -0.6542  -0.4654
     0.7487   0.9342   1.0886   1.3666   5.5959   5.7514   6.1298   6.3915
     6.6730   7.0483   7.7501

          k = 0.1667 0.1607-0.2316 ( 16394 PWs)   bands (ev):

   -49.1118 -49.1114 -49.1108 -49.1106 -48.9893 -48.9892 -21.0620 -21.0562
   -21.0533 -21.0502 -21.0495 -21.0476 -21.0447 -21.0412 -21.0321 -21.0295
   -21.0268 -21.0259 -20.9227 -20.9203 -20.9198 -20.9192 -20.9125 -20.9122
    -4.8037  -4.4032  -1.6861  -1.3374  -1.1384  -0.8215  -0.8000  -0.4361
     0.8025   1.0124   1.1296   1.1885   5.3602   6.0635   6.2191   6.3515
     6.7128   7.1185   7.4059

          k = 0.1667 0.1607-0.0579 ( 16393 PWs)   bands (ev):

   -49.1119 -49.1113 -49.1109 -49.1105 -48.9893 -48.9891 -21.0646 -21.0563
   -21.0537 -21.0527 -21.0490 -21.0456 -21.0436 -21.0398 -21.0318 -21.0301
   -21.0268 -21.0246 -20.9233 -20.9206 -20.9197 -20.9190 -20.9131 -20.9110
    -4.9680  -4.1714  -1.6940  -1.2926  -1.2573  -0.8793  -0.6042  -0.5469
     0.6124   0.9010   1.1719   1.4003   5.1698   5.8303   6.0604   6.8307
     6.9027   7.1800   7.7671

          k = 0.1667 0.3214 0.1157 ( 16377 PWs)   bands (ev):

   -49.1116 -49.1112 -49.1110 -49.1107 -48.9893 -48.9892 -21.0645 -21.0591
   -21.0525 -21.0514 -21.0502 -21.0463 -21.0404 -21.0381 -21.0324 -21.0318
   -21.0278 -21.0257 -20.9220 -20.9204 -20.9193 -20.9187 -20.9139 -20.9119
    -4.7016  -4.2358  -1.8603  -1.4483  -1.2784  -0.9622  -0.7064  -0.6962
     0.7184   0.8398   1.2049   1.3614   5.5911   5.9484   6.3239   6.6594
     7.1627   7.3720   7.8184

          k = 0.1667 0.3214 0.2894 ( 16380 PWs)   bands (ev):

   -49.1114 -49.1113 -49.1109 -49.1108 -48.9893 -48.9892 -21.0599 -21.0574
   -21.0537 -21.0508 -21.0492 -21.0465 -21.0434 -21.0417 -21.0337 -21.0302
   -21.0287 -21.0257 -20.9212 -20.9200 -20.9194 -20.9186 -20.9139 -20.9126
    -4.5368  -4.3896  -1.9856  -1.8373  -1.0186  -0.8880  -0.6312  -0.4966
     0.8283   0.8597   1.1520   1.2792   5.5998   5.6798   6.5137   6.8542
     7.0807   7.1903   7.8056

          k = 0.1667 0.3214-0.2316 ( 16390 PWs)   bands (ev):

   -49.1115 -49.1112 -49.1110 -49.1108 -48.9893 -48.9892 -21.0614 -21.0574
   -21.0518 -21.0499 -21.0497 -21.0473 -21.0446 -21.0416 -21.0333 -21.0292
   -21.0281 -21.0264 -20.9209 -20.9198 -20.9192 -20.9189 -20.9137 -20.9133
    -4.5983  -4.3311  -1.9734  -1.7495  -1.1094  -0.7815  -0.7156  -0.5623
     0.9401   0.9722   1.0719   1.1147   5.6170   5.9826   6.3994   6.7328
     6.8814   7.4654   7.5562

          k = 0.1667 0.3214-0.0579 ( 16374 PWs)   bands (ev):

   -49.1117 -49.1111 -49.1111 -49.1107 -48.9893 -48.9892 -21.0651 -21.0595
   -21.0524 -21.0512 -21.0487 -21.0467 -21.0422 -21.0381 -21.0325 -21.0302
   -21.0270 -21.0267 -20.9219 -20.9198 -20.9195 -20.9187 -20.9141 -20.9122
    -4.7267  -4.2150  -1.7515  -1.3902  -1.3243  -1.0623  -0.7905  -0.6592
     0.7621   0.9331   1.1603   1.2407   5.8321   6.0252   6.1603   6.7812
     6.9179   7.2787   7.5757

          k = 0.1667-0.4821 0.1157 ( 16376 PWs)   bands (ev):

   -49.1113 -49.1113 -49.1109 -49.1109 -48.9893 -48.9893 -21.0625 -21.0625
   -21.0513 -21.0513 -21.0489 -21.0489 -21.0388 -21.0388 -21.0304 -21.0304
   -21.0285 -21.0285 -20.9214 -20.9214 -20.9187 -20.9187 -20.9129 -20.9129
    -4.4137  -4.4137  -1.8237  -1.8237  -1.0115  -1.0115  -0.7859  -0.7859
     0.7641   0.7641   1.2699   1.2699   5.7652   5.7652   6.8086   6.8087
     7.2089   7.2089   8.3351

          k = 0.1667-0.4821 0.2894 ( 16402 PWs)   bands (ev):

   -49.1112 -49.1112 -49.1111 -49.1111 -48.9893 -48.9893 -21.0585 -21.0585
   -21.0520 -21.0520 -21.0483 -21.0483 -21.0428 -21.0428 -21.0315 -21.0315
   -21.0276 -21.0276 -20.9206 -20.9206 -20.9189 -20.9189 -20.9132 -20.9132
    -4.3765  -4.3765  -2.1177  -2.1177  -0.8453  -0.8453  -0.6239  -0.6239
     0.8289   0.8289   1.1963   1.1963   5.5663   5.5663   6.9754   6.9754
     7.4189   7.4189   7.9478

          k = 0.1667-0.4821-0.2316 ( 16390 PWs)   bands (ev):

   -49.1112 -49.1112 -49.1110 -49.1110 -48.9893 -48.9893 -21.0595 -21.0595
   -21.0515 -21.0515 -21.0474 -21.0474 -21.0435 -21.0435 -21.0315 -21.0315
   -21.0275 -21.0275 -20.9198 -20.9198 -20.9188 -20.9188 -20.9140 -20.9140
    -4.3862  -4.3862  -2.0582  -2.0582  -0.8894  -0.8894  -0.6368  -0.6368
     0.8488   0.8488   1.1522   1.1522   5.7557   5.7557   6.6517   6.6517
     7.3986   7.3986   8.1134

          k = 0.1667-0.4821-0.0579 ( 16380 PWs)   bands (ev):

   -49.1113 -49.1113 -49.1109 -49.1109 -48.9893 -48.9893 -21.0631 -21.0631
   -21.0510 -21.0510 -21.0486 -21.0486 -21.0391 -21.0391 -21.0305 -21.0305
   -21.0282 -21.0282 -20.9208 -20.9208 -20.9186 -20.9186 -20.9135 -20.9135
    -4.4226  -4.4226  -1.7167  -1.7167  -1.0998  -1.0998  -0.8147  -0.8147
     0.8211   0.8211   1.2001   1.2001   6.0928   6.0928   6.4024   6.4024
     7.1794   7.1794   8.3142

          k = 0.3333 0.0000 0.2315 ( 16398 PWs)   bands (ev):

   -49.1116 -49.1114 -49.1109 -49.1107 -48.9893 -48.9892 -21.0605 -21.0587
   -21.0530 -21.0484 -21.0478 -21.0463 -21.0427 -21.0423 -21.0345 -21.0317
   -21.0279 -21.0278 -20.9229 -20.9194 -20.9192 -20.9187 -20.9136 -20.9111
    -4.6497  -4.3270  -2.0812  -1.7440  -0.8649  -0.8187  -0.5325  -0.4243
     0.6092   0.9021   1.0607   1.3934   5.2413   5.3547   6.6499   6.9905
     7.1528   7.3058   7.4570

          k = 0.3333 0.0000 0.4051 ( 16406 PWs)   bands (ev):

   -49.1116 -49.1113 -49.1109 -49.1107 -48.9893 -48.9892 -21.0608 -21.0569
   -21.0525 -21.0486 -21.0468 -21.0464 -21.0453 -21.0434 -21.0341 -21.0308
   -21.0291 -21.0269 -20.9236 -20.9200 -20.9195 -20.9190 -20.9119 -20.9110
    -4.5616  -4.4208  -2.0074  -1.9129  -0.8635  -0.6168  -0.6125  -0.4431
     0.7965   0.8944   0.9903   1.2918   5.1157   5.5386   6.5165   6.7854
     6.8407   7.4049   7.5101

          k = 0.3333 0.0000-0.1159 ( 16420 PWs)   bands (ev):

   -49.1117 -49.1112 -49.1110 -49.1106 -48.9893 -48.9892 -21.0607 -21.0581
   -21.0528 -21.0522 -21.0482 -21.0457 -21.0436 -21.0422 -21.0319 -21.0312
   -21.0285 -21.0263 -20.9224 -20.9208 -20.9195 -20.9188 -20.9122 -20.9114
    -4.7473  -4.2349  -1.9102  -1.5074  -1.3038  -0.7811  -0.5647  -0.5304
     0.6857   0.9807   1.1305   1.2062   5.2337   6.1968   6.2859   6.5576
     6.6233   7.1226   7.8208

          k = 0.3333 0.0000 0.0578 ( 16403 PWs)   bands (ev):

   -49.1117 -49.1113 -49.1109 -49.1106 -48.9893 -48.9892 -21.0606 -21.0593
   -21.0553 -21.0495 -21.0478 -21.0466 -21.0439 -21.0401 -21.0322 -21.0314
   -21.0283 -21.0267 -20.9216 -20.9202 -20.9188 -20.9188 -20.9141 -20.9115
    -4.7816  -4.1967  -1.8780  -1.3781  -1.3312  -0.9454  -0.6558  -0.4154
     0.5629   0.9669   1.0892   1.3770   5.3391   5.8390   6.2741   6.7015
     7.1556   7.3930   7.4759

          k = 0.3333 0.1607 0.2315 ( 16395 PWs)   bands (ev):

   -49.1115 -49.1113 -49.1109 -49.1108 -48.9893 -48.9892 -21.0623 -21.0578
   -21.0538 -21.0511 -21.0490 -21.0462 -21.0428 -21.0410 -21.0337 -21.0312
   -21.0271 -21.0259 -20.9231 -20.9190 -20.9188 -20.9186 -20.9141 -20.9113
    -4.5802  -4.2862  -1.9938  -1.6977  -1.1650  -0.8084  -0.6904  -0.5679
     0.6685   0.8278   1.1687   1.3498   5.4428   5.6702   6.6242   6.8065
     6.9639   7.2460   7.6646

          k = 0.3333 0.1607 0.4051 ( 16392 PWs)   bands (ev):

   -49.1115 -49.1113 -49.1109 -49.1108 -48.9893 -48.9892 -21.0613 -21.0575
   -21.0528 -21.0503 -21.0481 -21.0467 -21.0452 -21.0434 -21.0328 -21.0306
   -21.0275 -21.0258 -20.9231 -20.9199 -20.9190 -20.9186 -20.9126 -20.9117
    -4.4983  -4.3704  -1.9320  -1.8538  -1.0732  -0.9263  -0.6181  -0.5270
     0.8064   0.9514   1.0678   1.2119   5.4957   5.7040   6.3628   6.7193
     7.0610   7.2529   7.8586

          k = 0.3333 0.1607-0.1159 ( 16390 PWs)   bands (ev):

   -49.1117 -49.1112 -49.1110 -49.1107 -48.9893 -48.9892 -21.0641 -21.0578
   -21.0534 -21.0516 -21.0494 -21.0461 -21.0449 -21.0398 -21.0319 -21.0303
   -21.0274 -21.0253 -20.9231 -20.9202 -20.9191 -20.9184 -20.9131 -20.9112
    -4.6713  -4.2058  -1.8256  -1.4905  -1.3368  -0.9568  -0.7176  -0.6603
     0.8359   0.8607   1.0868   1.1752   5.6208   6.0994   6.2905   6.5091
     7.0979   7.3075   7.6860

          k = 0.3333 0.1607 0.0578 ( 16405 PWs)   bands (ev):

   -49.1117 -49.1112 -49.1110 -49.1107 -48.9893 -48.9892 -21.0647 -21.0590
   -21.0543 -21.0509 -21.0494 -21.0470 -21.0416 -21.0394 -21.0323 -21.0308
   -21.0272 -21.0253 -20.9226 -20.9202 -20.9190 -20.9183 -20.9137 -20.9114
    -4.7037  -4.1726  -1.7962  -1.3725  -1.3251  -1.0874  -0.7723  -0.6241
     0.6627   0.7967   1.1767   1.2980   5.6332   5.9114   6.4060   6.7077
     7.0191   7.3086   7.7054

          k = 0.3333 0.3214 0.2315 ( 16384 PWs)   bands (ev):

   -49.1114 -49.1112 -49.1110 -49.1109 -48.9893 -48.9893 -21.0633 -21.0602
   -21.0549 -21.0530 -21.0504 -21.0482 -21.0428 -21.0411 -21.0297 -21.0290
   -21.0259 -21.0246 -20.9231 -20.9201 -20.9180 -20.9178 -20.9139 -20.9119
    -4.4062  -4.2147  -1.7907  -1.6730  -1.5173  -1.1290  -0.8058  -0.7646
     0.6580   0.7413   1.2188   1.3119   5.9659   6.1708   6.3826   6.8833
     7.2412   7.5167   7.7477

          k = 0.3333 0.3214 0.4051 ( 16387 PWs)   bands (ev):

   -49.1114 -49.1112 -49.1110 -49.1109 -48.9893 -48.9893 -21.0619 -21.0597
   -21.0532 -21.0523 -21.0502 -21.0473 -21.0460 -21.0443 -21.0300 -21.0279
   -21.0257 -21.0250 -20.9219 -20.9196 -20.9182 -20.9177 -20.9137 -20.9132
    -4.3479  -4.2647  -1.7902  -1.7741  -1.4427  -1.2291  -0.7783  -0.7224
     0.7158   0.9981   1.0628   1.2329   6.0597   6.1224   6.4852   6.8696
     7.1716   7.3886   7.6850

          k = 0.3333 0.3214-0.1159 ( 16373 PWs)   bands (ev):

   -49.1115 -49.1112 -49.1110 -49.1108 -48.9893 -48.9892 -21.0661 -21.0621
   -21.0540 -21.0529 -21.0497 -21.0486 -21.0423 -21.0386 -21.0301 -21.0276
   -21.0256 -21.0249 -20.9238 -20.9211 -20.9178 -20.9175 -20.9134 -20.9116
    -4.4742  -4.1733  -1.6574  -1.5705  -1.5542  -0.9624  -0.9418  -0.8531
     0.5740   0.6833   1.1643   1.2182   6.0320   6.2836   6.6125   6.7977
     7.2368   7.6253   7.8919

          k = 0.3333 0.3214 0.0578 ( 16386 PWs)   bands (ev):

   -49.1115 -49.1112 -49.1110 -49.1108 -48.9893 -48.9893 -21.0669 -21.0633
   -21.0543 -21.0526 -21.0505 -21.0491 -21.0392 -21.0373 -21.0303 -21.0283
   -21.0257 -21.0246 -20.9241 -20.9223 -20.9178 -20.9175 -20.9126 -20.9113
    -4.4993  -4.1570  -1.6868  -1.5042  -1.4253  -1.0949  -0.9005  -0.8694
     0.4442   0.6440   1.1904   1.2792   6.0199   6.2047   6.4156   7.0673
     7.2949   7.6341   8.0929

          k = 0.3333-0.4821 0.2315 ( 16402 PWs)   bands (ev):

   -49.1112 -49.1112 -49.1110 -49.1110 -48.9893 -48.9893 -21.0626 -21.0626
   -21.0547 -21.0547 -21.0499 -21.0499 -21.0421 -21.0421 -21.0268 -21.0268
   -21.0257 -21.0257 -20.9221 -20.9221 -20.9175 -20.9175 -20.9128 -20.9128
    -4.2412  -4.2412  -1.7870  -1.7870  -1.3284  -1.3284  -0.9026  -0.9026
     0.6761   0.6761   1.2496   1.2496   6.1946   6.1946   6.6973   6.6973
     7.6349   7.6350   8.1550

          k = 0.3333-0.4821 0.4051 ( 16408 PWs)   bands (ev):

   -49.1112 -49.1112 -49.1110 -49.1110 -48.9893 -48.9893 -21.0616 -21.0616
   -21.0529 -21.0529 -21.0500 -21.0500 -21.0452 -21.0452 -21.0271 -21.0271
   -21.0253 -21.0253 -20.9205 -20.9205 -20.9176 -20.9176 -20.9140 -20.9140
    -4.2327  -4.2327  -1.8363  -1.8363  -1.3172  -1.3172  -0.9077  -0.9077
     0.7860   0.7860   1.1975   1.1975   6.1689   6.1689   6.9040   6.9040
     7.3765   7.3765   8.0727

          k = 0.3333-0.4821-0.1159 ( 16366 PWs)   bands (ev):

   -49.1113 -49.1113 -49.1109 -49.1109 -48.9893 -48.9893 -21.0653 -21.0653
   -21.0541 -21.0541 -21.0501 -21.0501 -21.0394 -21.0394 -21.0270 -21.0270
   -21.0255 -21.0255 -20.9230 -20.9230 -20.9172 -20.9172 -20.9125 -20.9125
    -4.2610  -4.2610  -1.7453  -1.7453  -1.2406  -1.2406  -0.8842  -0.8842
     0.4741   0.4741   1.2277   1.2277   6.1326   6.1326   7.1128   7.1128
     7.4907   7.4907   8.3684

          k = 0.3333-0.4821 0.0578 ( 16368 PWs)   bands (ev):

   -49.1113 -49.1113 -49.1109 -49.1109 -48.9893 -48.9893 -21.0663 -21.0663
   -21.0543 -21.0543 -21.0506 -21.0506 -21.0373 -21.0373 -21.0266 -21.0266
   -21.0260 -21.0260 -20.9241 -20.9241 -20.9172 -20.9172 -20.9116 -20.9116
    -4.2691  -4.2691  -1.7130  -1.7130  -1.1637  -1.1637  -0.9570  -0.9570
     0.4103   0.4103   1.2403   1.2403   6.0923   6.0923   7.0346   7.0346
     7.7884   7.7885   8.3825

          k =-0.5000 0.0000-0.3472 ( 16388 PWs)   bands (ev):

   -49.1114 -49.1112 -49.1110 -49.1109 -48.9893 -48.9892 -21.0610 -21.0573
   -21.0506 -21.0472 -21.0465 -21.0453 -21.0444 -21.0442 -21.0378 -21.0308
   -21.0306 -21.0275 -20.9244 -20.9204 -20.9186 -20.9182 -20.9119 -20.9106
    -4.3860  -4.3595  -2.2728  -2.2117  -0.7977  -0.5404  -0.5057  -0.3858
     0.6377   0.8883   1.0007   1.2940   5.0721   5.2070   6.5613   6.6244
     7.1823   7.5548   8.0299

          k =-0.5000 0.0000-0.1735 ( 16398 PWs)   bands (ev):

   -49.1114 -49.1113 -49.1109 -49.1109 -48.9893 -48.9892 -21.0607 -21.0565
   -21.0548 -21.0491 -21.0471 -21.0456 -21.0435 -21.0428 -21.0344 -21.0314
   -21.0296 -21.0279 -20.9232 -20.9201 -20.9185 -20.9182 -20.9126 -20.9115
    -4.4119  -4.3940  -2.0789  -2.0178  -0.9305  -0.7567  -0.6065  -0.4645
     0.7204   0.9608   0.9698   1.2558   5.2877   5.4648   6.7148   6.9984
     7.0477   7.2182   7.4078

          k =-0.5000 0.0000-0.6945 ( 16416 PWs)   bands (ev):

   -49.1114 -49.1114 -49.1108 -49.1108 -48.9893 -48.9893 -21.0591 -21.0591
   -21.0535 -21.0535 -21.0471 -21.0471 -21.0416 -21.0416 -21.0319 -21.0319
   -21.0286 -21.0286 -20.9208 -20.9208 -20.9183 -20.9183 -20.9129 -20.9129
    -4.4313  -4.4313  -1.7459  -1.7459  -1.1737  -1.1737  -0.5710  -0.5710
     0.8581   0.8581   1.1319   1.1319   5.8710   5.8710   6.2689   6.2689
     7.0845   7.0845   7.9486

          k =-0.5000 0.1607-0.3472 ( 16400 PWs)   bands (ev):

   -49.1113 -49.1112 -49.1110 -49.1109 -48.9893 -48.9893 -21.0610 -21.0585
   -21.0520 -21.0510 -21.0474 -21.0457 -21.0453 -21.0451 -21.0333 -21.0290
   -21.0290 -21.0265 -20.9239 -20.9203 -20.9180 -20.9178 -20.9126 -20.9115
    -4.3344  -4.3103  -2.1732  -2.1180  -0.9420  -0.7298  -0.6918  -0.6085
     0.6478   0.9044   1.1515   1.2314   5.3824   5.4756   6.4031   6.9381
     7.3315   7.7822   7.8094

          k =-0.5000 0.1607-0.1735 ( 16399 PWs)   bands (ev):

   -49.1114 -49.1113 -49.1109 -49.1109 -48.9893 -48.9893 -21.0630 -21.0582
   -21.0544 -21.0510 -21.0495 -21.0472 -21.0430 -21.0406 -21.0324 -21.0298
   -21.0279 -21.0267 -20.9238 -20.9201 -20.9179 -20.9178 -20.9135 -20.9112
    -4.3582  -4.3417  -2.0007  -1.9403  -1.0327  -0.8573  -0.7605  -0.6647
     0.6549   0.8350   1.1138   1.2421   5.5826   5.7360   6.5596   6.7207
     7.2662   7.3428   7.8944

          k =-0.5000 0.1607-0.6945 ( 16394 PWs)   bands (ev):

   -49.1114 -49.1114 -49.1108 -49.1108 -48.9893 -48.9893 -21.0626 -21.0626
   -21.0524 -21.0524 -21.0489 -21.0489 -21.0402 -21.0402 -21.0305 -21.0305
   -21.0271 -21.0271 -20.9220 -20.9220 -20.9178 -20.9178 -20.9124 -20.9124
    -4.3760  -4.3760  -1.7185  -1.7185  -1.1387  -1.1387  -0.7853  -0.7853
     0.7554   0.7554   1.1422   1.1422   6.0342   6.0342   6.3549   6.3549
     7.2726   7.2726   8.1831

          k =-0.5000 0.3214-0.3472 ( 16406 PWs)   bands (ev):

   -49.1112 -49.1111 -49.1111 -49.1110 -48.9893 -48.9893 -21.0619 -21.0614
   -21.0538 -21.0532 -21.0494 -21.0481 -21.0462 -21.0461 -21.0279 -21.0261
   -21.0259 -21.0249 -20.9225 -20.9200 -20.9174 -20.9169 -20.9138 -20.9132
    -4.2183  -4.2026  -1.8914  -1.8523  -1.2868  -1.2021  -1.0017  -0.9772
     0.6664   1.0337   1.0349   1.2864   5.8542   6.2426   6.4472   7.0225
     7.5192   7.7784   7.7931

          k =-0.5000 0.3214-0.1735 ( 16373 PWs)   bands (ev):

   -49.1113 -49.1113 -49.1109 -49.1109 -48.9893 -48.9893 -21.0652 -21.0629
   -21.0550 -21.0543 -21.0507 -21.0491 -21.0423 -21.0397 -21.0279 -21.0268
   -21.0253 -21.0249 -20.9243 -20.9214 -20.9171 -20.9169 -20.9134 -20.9115
    -4.2369  -4.2260  -1.8323  -1.7666  -1.3127  -1.1965  -0.9170  -0.8844
     0.4838   0.6160   1.2286   1.2435   6.0412   6.1247   6.6035   7.0595
     7.3449   7.9343   8.3881

          k =-0.5000 0.3214-0.6945 ( 16394 PWs)   bands (ev):

   -49.1113 -49.1113 -49.1109 -49.1109 -48.9893 -48.9893 -21.0664 -21.0664
   -21.0544 -21.0544 -21.0506 -21.0506 -21.0377 -21.0377 -21.0274 -21.0274
   -21.0250 -21.0250 -20.9244 -20.9244 -20.9169 -20.9169 -20.9115 -20.9115
    -4.2515  -4.2515  -1.7633  -1.7633  -1.0594  -1.0594  -0.9900  -0.9900
     0.3735   0.3735   1.1975   1.1975   6.0793   6.0793   6.9779   6.9779
     7.8385   7.8385   8.4663

          k =-0.5000-0.4821-0.3472 ( 16420 PWs)   bands (ev):

   -49.1111 -49.1111 -49.1111 -49.1111 -48.9893 -48.9893 -21.0629 -21.0629
   -21.0528 -21.0528 -21.0509 -21.0509 -21.0464 -21.0464 -21.0252 -21.0252
   -21.0245 -21.0245 -20.9208 -20.9208 -20.9170 -20.9170 -20.9141 -20.9141
    -4.1474  -4.1474  -1.5424  -1.5424  -1.4575  -1.4575  -1.3310  -1.3310
     0.8157   0.8157   1.2043   1.2043   6.3485   6.3485   6.5675   6.5675
     7.9577   7.9577   8.3469

          k =-0.5000-0.4821-0.1735 ( 16384 PWs)   bands (ev):

   -49.1112 -49.1112 -49.1110 -49.1110 -48.9893 -48.9893 -21.0654 -21.0654
   -21.0557 -21.0557 -21.0506 -21.0506 -21.0406 -21.0406 -21.0252 -21.0252
   -21.0245 -21.0245 -20.9235 -20.9235 -20.9166 -20.9166 -20.9124 -20.9124
    -4.1640  -4.1640  -1.7645  -1.7645  -1.2125  -1.2125  -1.1351  -1.1351
     0.4703   0.4703   1.2381   1.2381   6.1237   6.1237   7.1109   7.1109
     8.0896   8.0896   8.4892

          k =-0.5000-0.4821-0.6945 ( 16352 PWs)   bands (ev):

   -49.1113 -49.1113 -49.1109 -49.1109 -48.9893 -48.9893 -21.0679 -21.0679
   -21.0556 -21.0556 -21.0515 -21.0515 -21.0367 -21.0367 -21.0252 -21.0252
   -21.0246 -21.0246 -20.9255 -20.9255 -20.9165 -20.9165 -20.9111 -20.9111
    -4.1800  -4.1800  -1.8612  -1.8612  -1.0068  -1.0068  -0.9685  -0.9685
     0.1420   0.1420   1.1985   1.1985   6.0693   6.0693   7.5131   7.5131
     8.2631   8.2631   8.4796

     the Fermi energy is     3.6418 ev

!    total energy              =    -665.33763308 Ry
     estimated scf accuracy    <          9.3E-09 Ry
     smearing contrib. (-TS)   =      -0.00000000 Ry
     internal energy E=F+TS    =    -665.33763308 Ry

     The total energy is F=E-TS. E is the sum of the following terms:
     one-electron contribution =    -482.05608905 Ry
     hartree contribution      =     254.82755111 Ry
     xc contribution           =    -100.22036952 Ry
     ewald contribution        =    -268.55382369 Ry
     one-center paw contrib.   =     -69.33490194 Ry

     convergence has been achieved in   8 iterations

     Forces acting on atoms (cartesian axes, Ry/au):

     atom    1 type  1   force =     0.00000000    0.00000000    0.00000000
     atom    2 type  1   force =     0.00000000    0.00000000    0.00000000
     atom    3 type  3   force =     0.00000000    0.00000000    0.00000000
     atom    4 type  3   force =     0.00000000    0.00000000    0.00000000
     atom    5 type  3   force =    -0.00035253    0.00030123    0.00024887
     atom    6 type  3   force =     0.00035253   -0.00030123   -0.00024887
     atom    7 type  3   force =     0.00035253    0.00030123   -0.00024887
     atom    8 type  3   force =    -0.00035253   -0.00030123    0.00024887
     atom    9 type  2   force =    -0.00019297    0.00059869    0.00022766
     atom   10 type  2   force =     0.00019297   -0.00059869   -0.00022766
     atom   11 type  2   force =     0.00019297    0.00059869   -0.00022766
     atom   12 type  2   force =    -0.00019297   -0.00059869    0.00022766
     atom   13 type  2   force =     0.00058652   -0.00028494   -0.00017469
     atom   14 type  2   force =    -0.00058652    0.00028494    0.00017469
     atom   15 type  2   force =    -0.00058652   -0.00028494    0.00017469
     atom   16 type  2   force =     0.00058652    0.00028494   -0.00017469
     atom   17 type  2   force =    -0.00036760    0.00004352   -0.00070076
     atom   18 type  2   force =     0.00036760   -0.00004352    0.00070076
     atom   19 type  2   force =     0.00036760    0.00004352    0.00070076
     atom   20 type  2   force =    -0.00036760   -0.00004352   -0.00070076

     Total force =     0.002689     Total SCF correction =     0.000043


     Computing stress (Cartesian axis) and pressure

          total   stress  (Ry/bohr**3)                   (kbar)     P=       13.95
   0.00009511   0.00000000   0.00000010           13.99        0.00        0.01
   0.00000000   0.00009372   0.00000000            0.00       13.79        0.00
   0.00000010   0.00000000   0.00009558            0.01        0.00       14.06


     BFGS Geometry Optimization
     Energy error            =      0.0E+00 Ry
     Gradient error          =      7.0E-04 Ry/Bohr
     Cell gradient error     =      1.4E+01 kbar

     number of scf cycles    =   1
     number of bfgs steps    =   0

     enthalpy           new  =    -665.3376330831 Ry

     new trust radius        =       0.0184742890 bohr
     new conv_thr            =       0.0000000100 Ry

     new unit-cell volume =   1505.03765 a.u.^3 (   223.02357 Ang^3 )
     density =      1.51879 g/cm^3

CELL_PARAMETERS (alat= 10.00307627)
   1.002377633   0.000000000   0.000002509
   0.000000000   1.039610400   0.000000000
  -1.001935360   0.000000000   1.442925431

ATOMIC_POSITIONS (crystal)
Al            0.5000000000        0.0000000000        0.0000000000
Al            0.5000000000        0.5000000000        0.5000000000
Na            0.0000000000        0.0000000000        0.5000000000
Na            0.0000000000        0.5000000000        0.0000000000
Na            0.2575207974        0.9529352189        0.2465897517
Na            0.7424792026        0.0470647811        0.7534102483
Na            0.7424792026        0.4529352189        0.2534102483
Na            0.2575207974        0.5470647811        0.7465897517
H             0.4015440850        0.7679829105        0.5631775728
H             0.5984559150        0.2320170895        0.4368224272
H             0.5984559150        0.2679829105        0.9368224272
H             0.4015440850        0.7320170895        0.0631775728
H             0.7291798096        0.8298201879        0.9564381371
H             0.2708201904        0.1701798121        0.0435618629
H             0.2708201904        0.3298201879        0.5435618629
H             0.7291798096        0.6701798121        0.4564381371
H             0.1827275471        0.9522856866        0.7826197768
H             0.8172724529        0.0477143134        0.2173802232
H             0.8172724529        0.4522856866        0.7173802232
H             0.1827275471        0.5477143134        0.2826197768



     Writing config-only to output data dir temp/na3alh6.save/
     NEW-OLD atomic charge density approx. for the potential
     extrapolated charge   72.50921, renormalised to   72.00000

     total cpu time spent up to now is       11.6 secs

     Self-consistent Calculation

     iteration #  1     ecut=    75.00 Ry     beta= 0.70
     Davidson diagonalization with overlap
     ethr =  1.00E-06,  avg # of iterations =  3.9

     total cpu time spent up to now is       13.0 secs

     total energy              =    -665.32102914 Ry
     estimated scf accuracy    <       0.01019027 Ry

     iteration #  2     ecut=    75.00 Ry     beta= 0.70
     Davidson diagonalization with overlap
     ethr =  1.42E-05,  avg # of iterations =  3.0

     total cpu time spent up to now is       14.2 secs

     total energy              =    -665.33882886 Ry
     estimated scf accuracy    <       0.01782878 Ry

     iteration #  3     ecut=    75.00 Ry     beta= 0.70
     Davidson diagonalization with overlap
     ethr =  1.42E-05,  avg # of iterations =  2.0

     total cpu time spent up to now is       15.1 secs

     total energy              =    -665.33864137 Ry
     estimated scf accuracy    <       0.00356875 Ry

     iteration #  4     ecut=    75.00 Ry     beta= 0.70
     Davidson diagonalization with overlap
     ethr =  4.96E-06,  avg # of iterations =  1.0

     total cpu time spent up to now is       16.1 secs

     total energy              =    -665.33842443 Ry
     estimated scf accuracy    <       0.00088110 Ry

     iteration #  5     ecut=    75.00 Ry     beta= 0.70
     Davidson diagonalization with overlap
     ethr =  1.22E-06,  avg # of iterations =  2.0

     total cpu time spent up to now is       17.0 secs

     total energy              =    -665.33848712 Ry
     estimated scf accuracy    <       0.00008127 Ry

     iteration #  6     ecut=    75.00 Ry     beta= 0.70
     Davidson diagonalization with overlap
     ethr =  1.13E-07,  avg # of iterations =  3.1

     total cpu time spent up to now is       18.1 secs

     total energy              =    -665.33853774 Ry
     estimated scf accuracy    <       0.00002884 Ry

     iteration #  7     ecut=    75.00 Ry     beta= 0.70
     Davidson diagonalization with overlap
     ethr =  4.01E-08,  avg # of iterations =  1.0

     total cpu time spent up to now is       18.9 secs

     total energy              =    -665.33851994 Ry
     estimated scf accuracy    <       0.00002276 Ry

     iteration #  8     ecut=    75.00 Ry     beta= 0.70
     Davidson diagonalization with overlap
     ethr =  3.16E-08,  avg # of iterations =  2.0

     total cpu time spent up to now is       19.9 secs

     total energy              =    -665.33852781 Ry
     estimated scf accuracy    <       0.00000439 Ry

     iteration #  9     ecut=    75.00 Ry     beta= 0.70
     Davidson diagonalization with overlap
     ethr =  6.10E-09,  avg # of iterations =  2.0

     total cpu time spent up to now is       20.9 secs

     total energy              =    -665.33852784 Ry
     estimated scf accuracy    <       0.00000053 Ry

     iteration # 10     ecut=    75.00 Ry     beta= 0.70
     Davidson diagonalization with overlap
     ethr =  7.30E-10,  avg # of iterations =  2.0

     total cpu time spent up to now is       22.1 secs

     total energy              =    -665.33852805 Ry
     estimated scf accuracy    <       0.00000035 Ry

     iteration # 11     ecut=    75.00 Ry     beta= 0.70
     Davidson diagonalization with overlap
     ethr =  4.92E-10,  avg # of iterations =  1.0

     total cpu time spent up to now is       22.9 secs

     total energy              =    -665.33852801 Ry
     estimated scf accuracy    <       0.00000010 Ry

     iteration # 12     ecut=    75.00 Ry     beta= 0.70
     Davidson diagonalization with overlap
     ethr =  1.45E-10,  avg # of iterations =  2.0

     total cpu time spent up to now is       23.9 secs

     End of self-consistent calculation

          k = 0.0000 0.0000 0.0000 ( 16357 PWs)   bands (ev):

   -49.1618 -49.1612 -49.1606 -49.1602 -49.0384 -49.0381 -21.1122 -21.1077
   -21.1047 -21.0989 -21.0963 -21.0956 -21.0928 -21.0913 -21.0809 -21.0771
   -21.0755 -21.0728 -20.9746 -20.9697 -20.9691 -20.9675 -20.9615 -20.9594
    -5.1829  -4.1941  -1.8799  -1.1334  -1.0229  -0.4773  -0.4405  -0.4220
     0.0444   0.8551   1.1495   1.5416   4.4532   5.4072   6.0850   6.8085
     6.9899   7.3478   7.7148

          k =-0.0000 0.0000 0.1733 ( 16402 PWs)   bands (ev):

   -49.1617 -49.1613 -49.1605 -49.1602 -49.0384 -49.0382 -21.1111 -21.1069
   -21.1040 -21.0992 -21.0979 -21.0966 -21.0927 -21.0899 -21.0805 -21.0771
   -21.0763 -21.0736 -20.9735 -20.9701 -20.9685 -20.9674 -20.9619 -20.9604
    -5.0740  -4.3951  -1.6533  -1.0857  -0.9545  -0.6183  -0.6010  -0.5468
     0.2547   0.9645   1.0470   1.4434   4.8086   5.5781   6.1199   6.5530
     6.6945   7.2914   7.5010

          k = 0.0000 0.0000-0.3465 ( 16392 PWs)   bands (ev):

   -49.1615 -49.1615 -49.1604 -49.1604 -49.0383 -49.0383 -21.1080 -21.1080
   -21.1028 -21.1028 -21.0964 -21.0964 -21.0915 -21.0915 -21.0786 -21.0786
   -21.0755 -21.0755 -20.9715 -20.9715 -20.9674 -20.9674 -20.9619 -20.9619
    -4.7751  -4.7751  -1.2060  -1.2060  -0.7918  -0.7918  -0.7691  -0.7691
     0.6957   0.6957   1.2083   1.2083   5.6232   5.6232   6.0279   6.0279
     6.7762   6.7762   7.3615

          k = 0.0000 0.1603 0.0000 ( 16343 PWs)   bands (ev):

   -49.1617 -49.1611 -49.1606 -49.1602 -49.0384 -49.0382 -21.1124 -21.1066
   -21.1028 -21.1017 -21.0964 -21.0959 -21.0917 -21.0892 -21.0813 -21.0780
   -21.0764 -21.0744 -20.9731 -20.9693 -20.9688 -20.9678 -20.9620 -20.9602
    -5.0912  -4.1939  -1.7968  -1.4265  -0.9690  -0.7493  -0.5893  -0.4386
     0.3672   0.8735   1.1575   1.4852   4.7782   5.5451   6.0199   6.6816
     7.0298   7.3365   7.6727

          k =-0.0000 0.1603 0.1733 ( 16375 PWs)   bands (ev):

   -49.1616 -49.1612 -49.1606 -49.1603 -49.0384 -49.0382 -21.1109 -21.1059
   -21.1027 -21.0999 -21.0985 -21.0962 -21.0923 -21.0891 -21.0811 -21.0777
   -21.0774 -21.0748 -20.9724 -20.9697 -20.9684 -20.9675 -20.9624 -20.9608
    -4.9874  -4.3645  -1.7680  -1.2017  -1.0541  -0.9015  -0.5345  -0.4698
     0.4803   0.9412   1.0835   1.3944   4.9823   5.6681   6.1401   6.6103
     6.7714   6.9764   7.4814

          k = 0.0000 0.1603-0.3465 ( 16422 PWs)   bands (ev):

   -49.1614 -49.1614 -49.1604 -49.1604 -49.0383 -49.0383 -21.1073 -21.1073
   -21.1021 -21.1021 -21.0964 -21.0964 -21.0918 -21.0918 -21.0796 -21.0796
   -21.0762 -21.0762 -20.9708 -20.9708 -20.9676 -20.9676 -20.9621 -20.9621
    -4.7070  -4.7070  -1.5305  -1.5305  -0.7405  -0.7405  -0.6841  -0.6841
     0.7855   0.7855   1.1786   1.1786   5.5318   5.5318   6.1452   6.1452
     6.9292   6.9292   7.4843

          k = 0.0000 0.3206 0.0000 ( 16414 PWs)   bands (ev):

   -49.1615 -49.1609 -49.1608 -49.1604 -49.0384 -49.0382 -21.1120 -21.1068
   -21.1029 -21.0989 -21.0976 -21.0950 -21.0900 -21.0876 -21.0818 -21.0806
   -21.0785 -21.0771 -20.9701 -20.9686 -20.9682 -20.9681 -20.9631 -20.9620
    -4.8390  -4.2655  -1.7728  -1.5635  -1.2958  -0.8747  -0.8104  -0.4788
     0.7010   0.9842   1.1096   1.3234   5.4188   5.7053   6.2688   6.3843
     7.2668   7.2794   7.4307

          k =-0.0000 0.3206 0.1733 ( 16378 PWs)   bands (ev):

   -49.1614 -49.1610 -49.1608 -49.1605 -49.0383 -49.0383 -21.1101 -21.1055
   -21.1020 -21.0991 -21.0979 -21.0950 -21.0914 -21.0890 -21.0829 -21.0802
   -21.0789 -21.0768 -20.9702 -20.9690 -20.9683 -20.9675 -20.9632 -20.9618
    -4.7558  -4.3433  -2.0601  -1.6740  -1.0569  -0.7726  -0.5881  -0.5055
     0.7322   0.9409   1.0906   1.2618   5.2316   5.5997   6.5809   6.6736
     6.8007   7.2633   7.4824

          k = 0.0000 0.3206-0.3465 ( 16386 PWs)   bands (ev):

   -49.1612 -49.1612 -49.1606 -49.1606 -49.0383 -49.0383 -21.1061 -21.1061
   -21.1004 -21.1004 -21.0960 -21.0960 -21.0921 -21.0921 -21.0824 -21.0824
   -21.0774 -21.0774 -20.9698 -20.9698 -20.9678 -20.9678 -20.9624 -20.9624
    -4.5486  -4.5486  -2.0348  -2.0348  -0.6782  -0.6782  -0.5443  -0.5443
     0.8423   0.8423   1.1238   1.1238   5.2844   5.2844   6.7389   6.7389
     7.0886   7.0886   7.5743

          k = 0.0000-0.4809 0.0000 ( 16388 PWs)   bands (ev):

   -49.1611 -49.1611 -49.1607 -49.1607 -49.0383 -49.0383 -21.1101 -21.1101
   -21.0997 -21.0997 -21.0958 -21.0958 -21.0884 -21.0884 -21.0814 -21.0814
   -21.0794 -21.0794 -20.9684 -20.9684 -20.9679 -20.9679 -20.9635 -20.9635
    -4.5107  -4.5107  -1.7194  -1.7194  -1.2281  -1.2281  -0.6189  -0.6189
     0.9214   0.9214   1.1641   1.1641   5.7247   5.7247   6.4102   6.4102
     6.9731   6.9731   8.0844

          k =-0.0000-0.4809 0.1733 ( 16422 PWs)   bands (ev):

   -49.1611 -49.1611 -49.1608 -49.1608 -49.0383 -49.0383 -21.1081 -21.1081
   -21.0999 -21.0999 -21.0951 -21.0951 -21.0904 -21.0904 -21.0830 -21.0830
   -21.0785 -21.0785 -20.9691 -20.9691 -20.9678 -20.9678 -20.9629 -20.9629
    -4.4828  -4.4828  -2.0647  -2.0647  -0.8288  -0.8288  -0.5901  -0.5901
     0.8629   0.8629   1.1485   1.1485   5.4023   5.4023   6.5562   6.5562
     7.4967   7.4967   7.9892

          k = 0.0000-0.4809-0.3465 ( 16396 PWs)   bands (ev):

   -49.1609 -49.1609 -49.1609 -49.1609 -49.0383 -49.0383 -21.1056 -21.1056
   -21.0996 -21.0996 -21.0955 -21.0955 -21.0919 -21.0919 -21.0845 -21.0845
   -21.0779 -21.0779 -20.9695 -20.9695 -20.9678 -20.9678 -20.9624 -20.9624
    -4.4532  -4.4532  -2.2687  -2.2687  -0.6473  -0.6473  -0.4717  -0.4717
     0.8106   0.8106   1.1123   1.1123   5.1801   5.1801   6.8261   6.8261
     7.3030   7.3030   8.1126

          k = 0.1663 0.0000 0.1155 ( 16395 PWs)   bands (ev):

   -49.1617 -49.1612 -49.1606 -49.1603 -49.0384 -49.0382 -21.1105 -21.1089
   -21.1013 -21.1012 -21.0970 -21.0966 -21.0906 -21.0905 -21.0809 -21.0795
   -21.0764 -21.0741 -20.9720 -20.9696 -20.9691 -20.9668 -20.9629 -20.9601
    -5.0364  -4.2554  -1.7961  -1.2157  -1.0722  -0.8863  -0.4805  -0.4797
     0.3105   0.8738   1.1201   1.4938   4.8513   5.6150   6.2208   6.5379
     6.8836   7.1295   7.1624

          k = 0.1663 0.0000 0.2887 ( 16379 PWs)   bands (ev):

   -49.1615 -49.1614 -49.1605 -49.1604 -49.0383 -49.0383 -21.1083 -21.1082
   -21.1019 -21.1015 -21.0972 -21.0953 -21.0923 -21.0908 -21.0802 -21.0799
   -21.0764 -21.0755 -20.9706 -20.9705 -20.9692 -20.9666 -20.9630 -20.9607
    -4.8083  -4.5741  -1.6034  -1.3422  -0.9189  -0.8257  -0.6391  -0.6121
     0.6023   0.9187   0.9940   1.3720   5.4518   5.4876   6.2019   6.3362
     6.4571   7.2683   7.4697

          k = 0.1663 0.0000-0.2311 ( 16381 PWs)   bands (ev):

   -49.1616 -49.1612 -49.1605 -49.1603 -49.0383 -49.0382 -21.1100 -21.1051
   -21.1042 -21.0993 -21.0973 -21.0957 -21.0947 -21.0910 -21.0802 -21.0782
   -21.0769 -21.0749 -20.9725 -20.9694 -20.9687 -20.9682 -20.9609 -20.9609
    -4.8970  -4.4648  -1.6455  -1.2470  -1.0472  -0.8560  -0.6786  -0.4873
     0.5624   0.9211   1.1584   1.2345   5.0398   5.9890   6.1897   6.4162
     6.5673   6.9071   7.3103

          k = 0.1663 0.0000-0.0578 ( 16406 PWs)   bands (ev):

   -49.1617 -49.1611 -49.1606 -49.1602 -49.0384 -49.0382 -21.1111 -21.1079
   -21.1028 -21.1003 -21.0970 -21.0956 -21.0921 -21.0918 -21.0804 -21.0786
   -21.0762 -21.0737 -20.9731 -20.9694 -20.9689 -20.9680 -20.9615 -20.9597
    -5.0692  -4.1998  -1.7732  -1.3613  -1.0741  -0.7654  -0.4993  -0.4818
     0.2917   0.9533   1.0987   1.4433   4.7599   5.6765   6.1000   6.5150
     6.9925   7.3508   7.5302

          k = 0.1663 0.1603 0.1155 ( 16391 PWs)   bands (ev):

   -49.1616 -49.1611 -49.1607 -49.1603 -49.0384 -49.0382 -21.1127 -21.1056
   -21.1027 -21.1012 -21.0992 -21.0948 -21.0904 -21.0890 -21.0816 -21.0807
   -21.0766 -21.0739 -20.9713 -20.9697 -20.9687 -20.9671 -20.9631 -20.9603
    -4.9500  -4.2383  -1.7730  -1.3026  -1.1292  -1.0024  -0.6860  -0.5206
     0.5434   0.8145   1.1560   1.4348   5.0994   5.7987   6.0927   6.5206
     6.8265   7.1599   7.5700

          k = 0.1663 0.1603 0.2887 ( 16392 PWs)   bands (ev):

   -49.1614 -49.1613 -49.1605 -49.1604 -49.0383 -49.0383 -21.1092 -21.1067
   -21.1027 -21.1003 -21.0977 -21.0951 -21.0927 -21.0906 -21.0816 -21.0803
   -21.0767 -21.0749 -20.9704 -20.9698 -20.9689 -20.9669 -20.9631 -20.9610
    -4.7351  -4.5192  -1.6869  -1.4558  -1.0928  -0.9322  -0.6847  -0.4970
     0.7108   0.8959   1.0494   1.3260   5.5267   5.6878   6.0767   6.3394
     6.6182   6.9906   7.6898

          k = 0.1663 0.1603-0.2311 ( 16394 PWs)   bands (ev):

   -49.1615 -49.1612 -49.1606 -49.1604 -49.0383 -49.0382 -21.1105 -21.1050
   -21.1022 -21.0992 -21.0986 -21.0967 -21.0940 -21.0906 -21.0814 -21.0788
   -21.0762 -21.0754 -20.9715 -20.9691 -20.9686 -20.9680 -20.9616 -20.9613
    -4.8181  -4.4211  -1.7111  -1.3651  -1.1661  -0.8510  -0.8298  -0.4680
     0.7641   0.9733   1.0906   1.1491   5.2922   6.0113   6.1640   6.2936
     6.6486   7.0618   7.3446

          k = 0.1663 0.1603-0.0578 ( 16393 PWs)   bands (ev):

   -49.1616 -49.1611 -49.1607 -49.1603 -49.0384 -49.0382 -21.1131 -21.1051
   -21.1027 -21.1017 -21.0981 -21.0948 -21.0928 -21.0892 -21.0811 -21.0794
   -21.0762 -21.0741 -20.9721 -20.9694 -20.9685 -20.9679 -20.9621 -20.9602
    -4.9811  -4.1916  -1.7183  -1.3194  -1.2847  -0.9091  -0.6354  -0.5785
     0.5751   0.8633   1.1324   1.3594   5.0978   5.7794   6.0109   6.7783
     6.8468   7.1207   7.6959

          k = 0.1663 0.3206 0.1155 ( 16377 PWs)   bands (ev):

   -49.1614 -49.1609 -49.1608 -49.1605 -49.0384 -49.0383 -21.1130 -21.1078
   -21.1014 -21.1004 -21.0993 -21.0955 -21.0898 -21.0876 -21.0816 -21.0810
   -21.0772 -21.0751 -20.9708 -20.9693 -20.9682 -20.9676 -20.9629 -20.9610
    -4.7169  -4.2554  -1.8837  -1.4749  -1.3052  -0.9912  -0.7370  -0.7265
     0.6811   0.8014   1.1651   1.3203   5.5264   5.8904   6.2690   6.6044
     7.1022   7.3119   7.7538

          k = 0.1663 0.3206 0.2887 ( 16380 PWs)   bands (ev):

   -49.1612 -49.1611 -49.1607 -49.1606 -49.0383 -49.0383 -21.1086 -21.1061
   -21.1026 -21.0998 -21.0983 -21.0957 -21.0927 -21.0911 -21.0828 -21.0794
   -21.0780 -21.0751 -20.9700 -20.9689 -20.9682 -20.9676 -20.9629 -20.9617
    -4.5536  -4.4078  -2.0085  -1.8613  -1.0472  -0.9174  -0.6619  -0.5279
     0.7905   0.8212   1.1122   1.2385   5.5365   5.6198   6.4598   6.7943
     7.0202   7.1316   7.7441

          k = 0.1663 0.3206-0.2311 ( 16390 PWs)   bands (ev):

   -49.1613 -49.1610 -49.1608 -49.1606 -49.0383 -49.0383 -21.1100 -21.1061
   -21.1008 -21.0989 -21.0987 -21.0965 -21.0938 -21.0910 -21.0825 -21.0785
   -21.0775 -21.0758 -20.9698 -20.9686 -20.9681 -20.9678 -20.9627 -20.9623
    -4.6145  -4.3498  -1.9962  -1.7742  -1.1374  -0.8116  -0.7457  -0.5934
     0.9018   0.9336   1.0320   1.0748   5.5544   5.9215   6.3448   6.6737
     6.8205   7.4061   7.4942

          k = 0.1663 0.3206-0.0578 ( 16374 PWs)   bands (ev):

   -49.1614 -49.1609 -49.1608 -49.1605 -49.0384 -49.0383 -21.1136 -21.1083
   -21.1014 -21.1001 -21.0978 -21.0959 -21.0914 -21.0876 -21.0817 -21.0794
   -21.0764 -21.0761 -20.9707 -20.9686 -20.9684 -20.9676 -20.9630 -20.9613
    -4.7418  -4.2348  -1.7754  -1.4166  -1.3511  -1.0907  -0.8207  -0.6899
     0.7247   0.8941   1.1207   1.2003   5.7609   5.9725   6.1068   6.7263
     6.8582   7.2146   7.5129

          k = 0.1663-0.4809 0.1155 ( 16376 PWs)   bands (ev):

   -49.1611 -49.1611 -49.1607 -49.1607 -49.0383 -49.0383 -21.1111 -21.1111
   -21.1002 -21.1002 -21.0980 -21.0980 -21.0883 -21.0883 -21.0797 -21.0797
   -21.0779 -21.0779 -20.9702 -20.9702 -20.9676 -20.9676 -20.9619 -20.9619
    -4.4316  -4.4316  -1.8475  -1.8475  -1.0399  -1.0399  -0.8159  -0.8159
     0.7264   0.7264   1.2293   1.2293   5.7074   5.7074   6.7462   6.7462
     7.1491   7.1491   8.2681

          k = 0.1663-0.4809 0.2887 ( 16402 PWs)   bands (ev):

   -49.1610 -49.1610 -49.1609 -49.1609 -49.0383 -49.0383 -21.1072 -21.1072
   -21.1010 -21.1010 -21.0974 -21.0974 -21.0921 -21.0921 -21.0808 -21.0808
   -21.0770 -21.0770 -20.9694 -20.9694 -20.9678 -20.9678 -20.9623 -20.9623
    -4.3949  -4.3949  -2.1396  -2.1396  -0.8749  -0.8749  -0.6545  -0.6545
     0.7908   0.7908   1.1560   1.1560   5.5067   5.5067   6.9166   6.9166
     7.3569   7.3569   7.8878

          k = 0.1663-0.4809-0.2311 ( 16390 PWs)   bands (ev):

   -49.1610 -49.1610 -49.1608 -49.1608 -49.0383 -49.0383 -21.1082 -21.1082
   -21.1004 -21.1004 -21.0965 -21.0965 -21.0928 -21.0928 -21.0807 -21.0807
   -21.0768 -21.0768 -20.9687 -20.9687 -20.9677 -20.9677 -20.9630 -20.9630
    -4.4044  -4.4044  -2.0804  -2.0804  -0.9187  -0.9187  -0.6674  -0.6674
     0.8108   0.8108   1.1119   1.1119   5.6948   5.6948   6.5973   6.5973
     7.3328   7.3328   8.0505

          k = 0.1663-0.4809-0.0578 ( 16380 PWs)   bands (ev):

   -49.1611 -49.1611 -49.1607 -49.1607 -49.0383 -49.0383 -21.1117 -21.1117
   -21.1000 -21.1000 -21.0977 -21.0977 -21.0885 -21.0885 -21.0798 -21.0798
   -21.0776 -21.0776 -20.9696 -20.9696 -20.9675 -20.9675 -20.9626 -20.9626
    -4.4404  -4.4404  -1.7413  -1.7413  -1.1279  -1.1279  -0.8444  -0.8444
     0.7831   0.7831   1.1599   1.1599   6.0355   6.0355   6.3430   6.3430
     7.1140   7.1140   8.2483

          k = 0.3325 0.0000 0.2309 ( 16398 PWs)   bands (ev):

   -49.1613 -49.1612 -49.1606 -49.1605 -49.0383 -49.0383 -21.1092 -21.1074
   -21.1019 -21.0975 -21.0970 -21.0956 -21.0920 -21.0916 -21.0837 -21.0809
   -21.0772 -21.0771 -20.9717 -20.9683 -20.9680 -20.9676 -20.9627 -20.9602
    -4.6655  -4.3457  -2.1037  -1.7690  -0.8944  -0.8484  -0.5636  -0.4556
     0.5724   0.8641   1.0210   1.3525   5.1801   5.2968   6.5896   6.9356
     7.0938   7.2473   7.3942

          k = 0.3325 0.0000 0.4042 ( 16406 PWs)   bands (ev):

   -49.1613 -49.1611 -49.1607 -49.1605 -49.0383 -49.0383 -21.1094 -21.1057
   -21.1013 -21.0977 -21.0960 -21.0956 -21.0946 -21.0927 -21.0833 -21.0800
   -21.0784 -21.0763 -20.9724 -20.9688 -20.9684 -20.9679 -20.9611 -20.9601
    -4.5781  -4.4387  -2.0303  -1.9368  -0.8931  -0.6472  -0.6431  -0.4749
     0.7586   0.8555   0.9519   1.2517   5.0564   5.4801   6.4563   6.7248
     6.7887   7.3441   7.4530

          k = 0.3325 0.0000-0.1156 ( 16420 PWs)   bands (ev):

   -49.1615 -49.1610 -49.1608 -49.1604 -49.0384 -49.0382 -21.1093 -21.1069
   -21.1018 -21.1013 -21.0973 -21.0949 -21.0928 -21.0915 -21.0812 -21.0805
   -21.0779 -21.0757 -20.9713 -20.9695 -20.9684 -20.9676 -20.9612 -20.9606
    -4.7622  -4.2546  -1.9335  -1.5340  -1.3306  -0.8110  -0.5957  -0.5613
     0.6482   0.9419   1.0913   1.1664   5.1698   6.1400   6.2287   6.4969
     6.5706   7.0631   7.7629

          k = 0.3325 0.0000 0.0577 ( 16403 PWs)   bands (ev):

   -49.1615 -49.1610 -49.1607 -49.1604 -49.0384 -49.0383 -21.1093 -21.1079
   -21.1042 -21.0986 -21.0969 -21.0958 -21.0929 -21.0895 -21.0815 -21.0807
   -21.0776 -21.0761 -20.9704 -20.9691 -20.9677 -20.9676 -20.9631 -20.9606
    -4.7962  -4.2167  -1.9015  -1.4044  -1.3588  -0.9748  -0.6859  -0.4469
     0.5262   0.9286   1.0497   1.3361   5.2712   5.7822   6.2208   6.6515
     7.0934   7.3316   7.4088

          k = 0.3325 0.1603 0.2309 ( 16395 PWs)   bands (ev):

   -49.1613 -49.1611 -49.1607 -49.1605 -49.0383 -49.0383 -21.1109 -21.1065
   -21.1027 -21.1001 -21.0981 -21.0955 -21.0921 -21.0904 -21.0829 -21.0805
   -21.0765 -21.0753 -20.9719 -20.9679 -20.9677 -20.9675 -20.9631 -20.9604
    -4.5966  -4.3054  -2.0167  -1.7229  -1.1925  -0.8381  -0.7206  -0.5986
     0.6313   0.7899   1.1285   1.3090   5.3813   5.6113   6.5681   6.7488
     6.9024   7.1868   7.6033

          k = 0.3325 0.1603 0.4042 ( 16392 PWs)   bands (ev):

   -49.1613 -49.1611 -49.1607 -49.1606 -49.0383 -49.0383 -21.1099 -21.1063
   -21.1017 -21.0993 -21.0973 -21.0959 -21.0945 -21.0927 -21.0821 -21.0798
   -21.0769 -21.0753 -20.9719 -20.9687 -20.9679 -20.9675 -20.9617 -20.9608
    -4.5154  -4.3887  -1.9554  -1.8780  -1.1013  -0.9551  -0.6486  -0.5584
     0.7687   0.9127   1.0279   1.1721   5.4348   5.6447   6.3086   6.6604
     6.9966   7.1916   7.8002

          k = 0.3325 0.1603-0.1156 ( 16390 PWs)   bands (ev):

   -49.1614 -49.1610 -49.1608 -49.1605 -49.0384 -49.0383 -21.1126 -21.1065
   -21.1023 -21.1005 -21.0985 -21.0953 -21.0941 -21.0892 -21.0811 -21.0796
   -21.0768 -21.0747 -20.9719 -20.9690 -20.9680 -20.9672 -20.9622 -20.9604
    -4.6868  -4.2257  -1.8494  -1.5171  -1.3633  -0.9854  -0.7477  -0.6911
     0.7979   0.8223   1.0476   1.1355   5.5552   6.0477   6.2299   6.4549
     7.0337   7.2472   7.6244

          k = 0.3325 0.1603 0.0577 ( 16405 PWs)   bands (ev):

   -49.1614 -49.1610 -49.1607 -49.1604 -49.0384 -49.0383 -21.1132 -21.1078
   -21.1032 -21.0998 -21.0985 -21.0961 -21.0908 -21.0888 -21.0816 -21.0801
   -21.0766 -21.0748 -20.9714 -20.9691 -20.9678 -20.9672 -20.9627 -20.9605
    -4.7189  -4.1928  -1.8202  -1.3990  -1.3525  -1.1155  -0.8022  -0.6546
     0.6257   0.7589   1.1371   1.2575   5.5654   5.8561   6.3523   6.6525
     6.9631   7.2431   7.6413

          k = 0.3325 0.3206 0.2309 ( 16384 PWs)   bands (ev):

   -49.1611 -49.1610 -49.1608 -49.1606 -49.0383 -49.0383 -21.1119 -21.1088
   -21.1037 -21.1020 -21.0994 -21.0973 -21.0921 -21.0904 -21.0791 -21.0783
   -21.0754 -21.0741 -20.9718 -20.9690 -20.9668 -20.9668 -20.9629 -20.9610
    -4.4241  -4.2345  -1.8148  -1.6981  -1.5425  -1.1567  -0.8352  -0.7947
     0.6208   0.7038   1.1784   1.2710   5.9046   6.1131   6.3269   6.8219
     7.1798   7.4532   7.6847

          k = 0.3325 0.3206 0.4042 ( 16387 PWs)   bands (ev):

   -49.1611 -49.1610 -49.1608 -49.1607 -49.0384 -49.0383 -21.1104 -21.1084
   -21.1021 -21.1012 -21.0993 -21.0964 -21.0952 -21.0936 -21.0793 -21.0773
   -21.0752 -21.0745 -20.9708 -20.9685 -20.9671 -20.9666 -20.9628 -20.9622
    -4.3663  -4.2840  -1.8144  -1.7984  -1.4683  -1.2561  -0.8082  -0.7524
     0.6787   0.9592   1.0232   1.1920   6.0032   6.0630   6.4233   6.8061
     7.1123   7.3272   7.6223

          k = 0.3325 0.3206-0.1156 ( 16373 PWs)   bands (ev):

   -49.1613 -49.1609 -49.1608 -49.1606 -49.0384 -49.0383 -21.1145 -21.1107
   -21.1028 -21.1018 -21.0988 -21.0977 -21.0916 -21.0880 -21.0795 -21.0770
   -21.0751 -21.0744 -20.9725 -20.9699 -20.9667 -20.9664 -20.9625 -20.9607
    -4.4914  -4.1935  -1.6818  -1.5959  -1.5796  -0.9913  -0.9709  -0.8827
     0.5374   0.6461   1.1244   1.1781   5.9819   6.2280   6.5410   6.7388
     7.1717   7.5575   7.8257

          k = 0.3325 0.3206 0.0577 ( 16386 PWs)   bands (ev):

   -49.1613 -49.1610 -49.1608 -49.1606 -49.0384 -49.0383 -21.1153 -21.1119
   -21.1032 -21.1015 -21.0996 -21.0982 -21.0886 -21.0868 -21.0796 -21.0777
   -21.0752 -21.0741 -20.9728 -20.9711 -20.9668 -20.9664 -20.9617 -20.9604
    -4.5162  -4.1773  -1.7109  -1.5302  -1.4513  -1.1231  -0.9299  -0.8989
     0.4083   0.6069   1.1508   1.2387   5.9691   6.1479   6.3495   7.0065
     7.2301   7.5707   8.0223

          k = 0.3325-0.4809 0.2309 ( 16402 PWs)   bands (ev):

   -49.1610 -49.1610 -49.1608 -49.1608 -49.0383 -49.0383 -21.1111 -21.1111
   -21.1035 -21.1035 -21.0990 -21.0990 -21.0914 -21.0914 -21.0762 -21.0762
   -21.0752 -21.0752 -20.9709 -20.9709 -20.9664 -20.9664 -20.9619 -20.9619
    -4.2607  -4.2607  -1.8109  -1.8109  -1.3549  -1.3549  -0.9318  -0.9318
     0.6388   0.6388   1.2091   1.2091   6.1385   6.1385   6.6361   6.6361
     7.5706   7.5706   8.0867

          k = 0.3325-0.4809 0.4042 ( 16408 PWs)   bands (ev):

   -49.1609 -49.1609 -49.1608 -49.1608 -49.0383 -49.0383 -21.1101 -21.1101
   -21.1018 -21.1018 -21.0990 -21.0990 -21.0945 -21.0945 -21.0765 -21.0765
   -21.0748 -21.0748 -20.9693 -20.9693 -20.9665 -20.9665 -20.9631 -20.9631
    -4.2524  -4.2524  -1.8598  -1.8598  -1.3438  -1.3438  -0.9367  -0.9367
     0.7483   0.7483   1.1569   1.1569   6.1115   6.1115   6.8471   6.8471
     7.3089   7.3089   8.0048

          k = 0.3325-0.4809-0.1156 ( 16366 PWs)   bands (ev):

   -49.1611 -49.1611 -49.1607 -49.1607 -49.0383 -49.0383 -21.1138 -21.1138
   -21.1030 -21.1030 -21.0992 -21.0992 -21.0888 -21.0888 -21.0764 -21.0764
   -21.0750 -21.0750 -20.9718 -20.9718 -20.9661 -20.9661 -20.9616 -20.9616
    -4.2803  -4.2803  -1.7692  -1.7692  -1.2679  -1.2679  -0.9137  -0.9137
     0.4380   0.4380   1.1876   1.1876   6.0810   6.0810   7.0480   7.0480
     7.4194   7.4194   8.2990

          k = 0.3325-0.4809 0.0577 ( 16368 PWs)   bands (ev):

   -49.1611 -49.1611 -49.1607 -49.1607 -49.0383 -49.0383 -21.1148 -21.1148
   -21.1031 -21.1031 -21.0997 -21.0997 -21.0869 -21.0869 -21.0760 -21.0760
   -21.0755 -21.0755 -20.9728 -20.9728 -20.9662 -20.9662 -20.9608 -20.9608
    -4.2882  -4.2882  -1.7371  -1.7371  -1.1914  -1.1914  -0.9862  -0.9862
     0.3744   0.3744   1.2003   1.2003   6.0411   6.0411   6.9653   6.9653
     7.7220   7.7220   8.3129

          k =-0.4988 0.0000-0.3464 ( 16388 PWs)   bands (ev):

   -49.1611 -49.1610 -49.1608 -49.1607 -49.0383 -49.0383 -21.1095 -21.1061
   -21.0995 -21.0963 -21.0958 -21.0946 -21.0938 -21.0935 -21.0868 -21.0800
   -21.0799 -21.0769 -20.9731 -20.9692 -20.9675 -20.9671 -20.9611 -20.9598
    -4.4043  -4.3781  -2.2939  -2.2331  -0.8277  -0.5712  -0.5373  -0.4173
     0.6009   0.8499   0.9611   1.2536   5.0149   5.1500   6.4997   6.5639
     7.1294   7.4969   7.9655

          k =-0.4988 0.0000-0.1731 ( 16398 PWs)   bands (ev):

   -49.1612 -49.1611 -49.1607 -49.1606 -49.0383 -49.0383 -21.1094 -21.1054
   -21.1037 -21.0982 -21.0963 -21.0948 -21.0928 -21.0921 -21.0837 -21.0806
   -21.0788 -21.0772 -20.9720 -20.9689 -20.9674 -20.9671 -20.9618 -20.9605
    -4.4299  -4.4122  -2.1014  -2.0406  -0.9598  -0.7870  -0.6368  -0.4954
     0.6831   0.9216   0.9312   1.2157   5.2294   5.4057   6.6534   6.9333
     6.9944   7.1581   7.3446

          k =-0.4988 0.0000-0.6929 ( 16416 PWs)   bands (ev):

   -49.1612 -49.1612 -49.1606 -49.1606 -49.0383 -49.0383 -21.1079 -21.1079
   -21.1023 -21.1023 -21.0962 -21.0962 -21.0909 -21.0909 -21.0812 -21.0812
   -21.0779 -21.0779 -20.9696 -20.9696 -20.9672 -20.9672 -20.9620 -20.9620
    -4.4490  -4.4490  -1.7708  -1.7708  -1.2015  -1.2015  -0.6014  -0.6014
     0.8199   0.8199   1.0923   1.0923   5.8072   5.8072   6.2108   6.2108
     7.0323   7.0323   7.8833

          k =-0.4988 0.1603-0.3464 ( 16400 PWs)   bands (ev):

   -49.1611 -49.1610 -49.1608 -49.1607 -49.0383 -49.0383 -21.1095 -21.1073
   -21.1009 -21.1000 -21.0966 -21.0950 -21.0946 -21.0943 -21.0826 -21.0783
   -21.0783 -21.0759 -20.9727 -20.9690 -20.9669 -20.9667 -20.9618 -20.9605
    -4.3532  -4.3293  -2.1948  -2.1400  -0.9709  -0.7595  -0.7219  -0.6394
     0.6110   0.8657   1.1112   1.1913   5.3251   5.4166   6.3476   6.8741
     7.2714   7.7190   7.7494

          k =-0.4988 0.1603-0.1731 ( 16399 PWs)   bands (ev):

   -49.1611 -49.1611 -49.1607 -49.1607 -49.0383 -49.0383 -21.1116 -21.1069
   -21.1034 -21.0999 -21.0985 -21.0964 -21.0922 -21.0900 -21.0817 -21.0791
   -21.0773 -21.0761 -20.9725 -20.9689 -20.9668 -20.9667 -20.9625 -20.9603
    -4.3766  -4.3603  -2.0237  -1.9635  -1.0612  -0.8863  -0.7905  -0.6949
     0.6179   0.7971   1.0738   1.2018   5.5237   5.6771   6.5054   6.6612
     7.2003   7.2778   7.8347

          k =-0.4988 0.1603-0.6929 ( 16394 PWs)   bands (ev):

   -49.1612 -49.1612 -49.1606 -49.1606 -49.0383 -49.0383 -21.1112 -21.1112
   -21.1013 -21.1013 -21.0980 -21.0980 -21.0896 -21.0896 -21.0798 -21.0798
   -21.0765 -21.0765 -20.9708 -20.9708 -20.9667 -20.9667 -20.9615 -20.9615
    -4.3942  -4.3942  -1.7433  -1.7433  -1.1668  -1.1668  -0.8146  -0.8146
     0.7177   0.7177   1.1025   1.1025   5.9770   5.9770   6.2924   6.2924
     7.2136   7.2136   8.1173

          k =-0.4988 0.3206-0.3464 ( 16406 PWs)   bands (ev):

   -49.1610 -49.1609 -49.1608 -49.1608 -49.0384 -49.0383 -21.1104 -21.1099
   -21.1027 -21.1021 -21.0985 -21.0972 -21.0954 -21.0953 -21.0773 -21.0756
   -21.0753 -21.0744 -20.9714 -20.9688 -20.9663 -20.9659 -20.9629 -20.9622
    -4.2381  -4.2226  -1.9147  -1.8758  -1.3134  -1.2290  -1.0301  -1.0060
     0.6295   0.9946   0.9952   1.2452   5.7972   6.1886   6.3850   6.9645
     7.4531   7.7130   7.7281

          k =-0.4988 0.3206-0.1731 ( 16373 PWs)   bands (ev):

   -49.1611 -49.1610 -49.1607 -49.1607 -49.0384 -49.0383 -21.1137 -21.1114
   -21.1038 -21.1032 -21.0998 -21.0982 -21.0916 -21.0891 -21.0773 -21.0762
   -21.0748 -21.0744 -20.9730 -20.9702 -20.9660 -20.9658 -20.9625 -20.9607
    -4.2564  -4.2456  -1.8560  -1.7906  -1.3396  -1.2234  -0.9464  -0.9137
     0.4477   0.5791   1.1883   1.2031   5.9866   6.0727   6.5414   6.9924
     7.2806   7.8640   8.3204

          k =-0.4988 0.3206-0.6929 ( 16394 PWs)   bands (ev):

   -49.1611 -49.1611 -49.1607 -49.1607 -49.0383 -49.0383 -21.1149 -21.1149
   -21.1032 -21.1032 -21.0997 -21.0997 -21.0872 -21.0872 -21.0768 -21.0768
   -21.0745 -21.0745 -20.9730 -20.9730 -20.9658 -20.9658 -20.9607 -20.9607
    -4.2709  -4.2709  -1.7873  -1.7873  -1.0881  -1.0881  -1.0185  -1.0185
     0.3379   0.3379   1.1578   1.1578   6.0285   6.0285   6.9083   6.9083
     7.7717   7.7717   8.3980

          k =-0.4988-0.4809-0.3464 ( 16420 PWs)   bands (ev):

   -49.1609 -49.1609 -49.1609 -49.1609 -49.0384 -49.0384 -21.1114 -21.1114
   -21.1018 -21.1018 -21.0999 -21.0999 -21.0955 -21.0955 -21.0747 -21.0747
   -21.0740 -21.0740 -20.9697 -20.9697 -20.9659 -20.9659 -20.9631 -20.9631
    -4.1679  -4.1679  -1.5675  -1.5675  -1.4832  -1.4832  -1.3574  -1.3574
     0.7778   0.7778   1.1635   1.1635   6.2937   6.2937   6.5101   6.5101
     7.8832   7.8832   8.2773

          k =-0.4988-0.4809-0.1731 ( 16384 PWs)   bands (ev):

   -49.1610 -49.1610 -49.1607 -49.1607 -49.0384 -49.0384 -21.1138 -21.1138
   -21.1045 -21.1045 -21.0996 -21.0996 -21.0900 -21.0900 -21.0747 -21.0747
   -21.0740 -21.0740 -20.9722 -20.9722 -20.9655 -20.9655 -20.9615 -20.9615
    -4.1842  -4.1842  -1.7881  -1.7881  -1.2402  -1.2402  -1.1628  -1.1628
     0.4340   0.4340   1.1979   1.1979   6.0722   6.0722   7.0456   7.0456
     8.0170   8.0170   8.4190

          k =-0.4988-0.4809-0.6929 ( 16352 PWs)   bands (ev):

   -49.1611 -49.1611 -49.1607 -49.1607 -49.0384 -49.0384 -21.1163 -21.1163
   -21.1043 -21.1043 -21.1005 -21.1005 -21.0863 -21.0863 -21.0747 -21.0747
   -21.0741 -21.0741 -20.9741 -20.9741 -20.9654 -20.9654 -20.9603 -20.9603
    -4.2001  -4.2001  -1.8841  -1.8841  -1.0359  -1.0359  -0.9975  -0.9975
     0.1077   0.1077   1.1591   1.1591   6.0185   6.0185   7.4414   7.4414
     8.1936   8.1936   8.4118

     the Fermi energy is     3.5735 ev

!    total energy              =    -665.33852802 Ry
     estimated scf accuracy    <          7.6E-09 Ry
     smearing contrib. (-TS)   =      -0.00000000 Ry
     internal energy E=F+TS    =    -665.33852802 Ry

     The total energy is F=E-TS. E is the sum of the following terms:
     one-electron contribution =    -483.12143100 Ry
     hartree contribution      =     255.22794637 Ry
     xc contribution           =    -100.19407815 Ry
     ewald contribution        =    -267.91783163 Ry
     one-center paw contrib.   =     -69.33313360 Ry

     convergence has been achieved in  12 iterations

     Forces acting on atoms (cartesian axes, Ry/au):

     atom    1 type  1   force =     0.00000000    0.00000000    0.00000000
     atom    2 type  1   force =     0.00000000    0.00000000    0.00000000
     atom    3 type  3   force =     0.00000000    0.00000000    0.00000000
     atom    4 type  3   force =     0.00000000    0.00000000    0.00000000
     atom    5 type  3   force =    -0.00033823    0.00027583    0.00019116
     atom    6 type  3   force =     0.00033823   -0.00027583   -0.00019116
     atom    7 type  3   force =     0.00033823    0.00027583   -0.00019116
     atom    8 type  3   force =    -0.00033823   -0.00027583    0.00019116
     atom    9 type  2   force =     0.00022313   -0.00012146    0.00002388
     atom   10 type  2   force =    -0.00022313    0.00012146   -0.00002388
     atom   11 type  2   force =    -0.00022313   -0.00012146   -0.00002388
     atom   12 type  2   force =     0.00022313    0.00012146    0.00002388
     atom   13 type  2   force =    -0.00017658    0.00024130   -0.00003262
     atom   14 type  2   force =     0.00017658   -0.00024130    0.00003262
     atom   15 type  2   force =     0.00017658    0.00024130    0.00003262
     atom   16 type  2   force =    -0.00017658   -0.00024130   -0.00003262
     atom   17 type  2   force =    -0.00011196    0.00012280    0.00016124
     atom   18 type  2   force =     0.00011196   -0.00012280   -0.00016124
     atom   19 type  2   force =     0.00011196    0.00012280   -0.00016124
     atom   20 type  2   force =    -0.00011196   -0.00012280    0.00016124

     Total force =     0.001321     Total SCF correction =     0.000012


     Computing stress (Cartesian axis) and pressure

          total   stress  (Ry/bohr**3)                   (kbar)     P=       10.52
   0.00007158   0.00000000   0.00000034           10.53        0.00        0.05
   0.00000000   0.00007029   0.00000000            0.00       10.34        0.00
   0.00000034   0.00000000   0.00007261            0.05        0.00       10.68

     Energy error            =      8.9E-04 Ry
     Gradient error          =      3.4E-04 Ry/Bohr
[...]
   -21.3197 -21.3197 -21.2285 -21.2285 -21.2265 -21.2265 -21.2207 -21.2207
    -4.5450  -4.5450  -1.9562  -1.9562  -1.1812  -1.1812  -0.9664  -0.9664
     0.5705   0.5705   1.0560   1.0560   5.4443   5.4443   6.4629   6.4629
     6.8740   6.8740   7.9544

          k = 0.1644-0.4760 0.2853 ( 17064 PWs)   bands (ev):

   -49.4049 -49.4049 -49.4048 -49.4048 -49.2995 -49.2995 -21.3479 -21.3479
   -21.3418 -21.3418 -21.3386 -21.3386 -21.3339 -21.3339 -21.3226 -21.3226
   -21.3188 -21.3188 -21.2278 -21.2278 -21.2267 -21.2267 -21.2210 -21.2210
    -4.5123  -4.5123  -2.2342  -2.2342  -1.0247  -1.0247  -0.8104  -0.8104
     0.6340   0.6340   0.9845   0.9845   5.2390   5.2390   6.6472   6.6473
     7.0733   7.0733   7.6343

          k = 0.1645-0.4760-0.2284 ( 17042 PWs)   bands (ev):

   -49.4050 -49.4050 -49.4048 -49.4048 -49.2995 -49.2995 -21.3488 -21.3488
   -21.3411 -21.3411 -21.3376 -21.3376 -21.3348 -21.3348 -21.3225 -21.3225
   -21.3187 -21.3187 -21.2276 -21.2276 -21.2262 -21.2262 -21.2217 -21.2217
    -4.5207  -4.5207  -2.1783  -2.1783  -1.0654  -1.0654  -0.8240  -0.8240
     0.6551   0.6551   0.9401   0.9401   5.4207   5.4207   6.3452   6.3452
     7.0318   7.0318   7.7747

          k = 0.1645-0.4760-0.0572 ( 17070 PWs)   bands (ev):

   -49.4051 -49.4051 -49.4047 -49.4047 -49.2995 -49.2995 -21.3518 -21.3518
   -21.3407 -21.3407 -21.3387 -21.3387 -21.3311 -21.3311 -21.3215 -21.3215
   -21.3195 -21.3195 -21.2282 -21.2282 -21.2262 -21.2262 -21.2213 -21.2213
    -4.5529  -4.5529  -1.8558  -1.8558  -1.2646  -1.2646  -0.9931  -0.9931
     0.6241   0.6241   0.9892   0.9892   5.7740   5.7740   6.0703   6.0703
     6.8104   6.8104   7.9626

          k = 0.3288 0.0000 0.2281 ( 17084 PWs)   bands (ev):

   -49.4052 -49.4051 -49.4047 -49.4045 -49.2995 -49.2995 -21.3496 -21.3482
   -21.3425 -21.3386 -21.3380 -21.3372 -21.3340 -21.3334 -21.3252 -21.3223
   -21.3191 -21.3191 -21.2300 -21.2272 -21.2269 -21.2261 -21.2215 -21.2190
    -4.7658  -4.4656  -2.2041  -1.8867  -1.0408  -0.9976  -0.7224  -0.6161
     0.4220   0.7062   0.8563   1.1804   4.9101   5.0386   6.3238   6.6856
     6.8164   7.0032   7.1084

          k = 0.3288 0.0000 0.3994 ( 17100 PWs)   bands (ev):

   -49.4052 -49.4051 -49.4047 -49.4046 -49.2995 -49.2995 -21.3498 -21.3468
   -21.3419 -21.3388 -21.3372 -21.3370 -21.3362 -21.3347 -21.3247 -21.3215
   -21.3202 -21.3183 -21.2306 -21.2274 -21.2273 -21.2265 -21.2200 -21.2189
    -4.6829  -4.5535  -2.1338  -2.0476  -1.0434  -0.7997  -0.7958  -0.6376
     0.5991   0.6967   0.7892   1.0845   4.7977   5.2193   6.1907   6.4621
     6.5484   7.0606   7.1942

          k = 0.3289 0.0000-0.1144 ( 17088 PWs)   bands (ev):

   -49.4054 -49.4049 -49.4048 -49.4045 -49.2996 -49.2995 -21.3496 -21.3471
   -21.3429 -21.3423 -21.3385 -21.3362 -21.3347 -21.3333 -21.3228 -21.3219
   -21.3199 -21.3178 -21.2295 -21.2282 -21.2274 -21.2263 -21.2199 -21.2195
    -4.8560  -4.3811  -2.0380  -1.6630  -1.4625  -0.9580  -0.7521  -0.7173
     0.4959   0.7767   0.9291   0.9964   4.8902   5.8673   5.9745   6.2129
     6.3335   6.8071   7.6062

          k = 0.3289 0.0000 0.0569 ( 17074 PWs)   bands (ev):

   -49.4054 -49.4050 -49.4047 -49.4045 -49.2996 -49.2995 -21.3494 -21.3484
   -21.3448 -21.3400 -21.3382 -21.3372 -21.3345 -21.3316 -21.3232 -21.3223
   -21.3195 -21.3182 -21.2289 -21.2276 -21.2267 -21.2264 -21.2216 -21.2195
    -4.8884  -4.3452  -2.0085  -1.5308  -1.4960  -1.1183  -0.8359  -0.6084
     0.3781   0.7707   0.8830   1.1618   4.9689   5.5234   5.9786   6.4236
     6.7887   7.0645   7.1334

          k = 0.3288 0.1587 0.2281 ( 17086 PWs)   bands (ev):

   -49.4052 -49.4050 -49.4047 -49.4046 -49.2995 -49.2995 -21.3511 -21.3472
   -21.3433 -21.3409 -21.3392 -21.3370 -21.3338 -21.3325 -21.3243 -21.3219
   -21.3186 -21.3176 -21.2302 -21.2268 -21.2265 -21.2261 -21.2218 -21.2193
    -4.7004  -4.4277  -2.1197  -1.8420  -1.3252  -0.9872  -0.8716  -0.7557
     0.4793   0.6322   0.9595   1.1355   5.1081   5.3489   6.3061   6.4774
     6.6342   6.9124   7.3337

          k = 0.3288 0.1587 0.3994 ( 17097 PWs)   bands (ev):

   -49.4052 -49.4050 -49.4047 -49.4046 -49.2995 -49.2995 -21.3502 -21.3471
   -21.3425 -21.3401 -21.3385 -21.3373 -21.3360 -21.3347 -21.3236 -21.3213
   -21.3190 -21.3175 -21.2302 -21.2273 -21.2268 -21.2262 -21.2206 -21.2196
    -4.6236  -4.5063  -2.0611  -1.9904  -1.2391  -1.0961  -0.8034  -0.7174
     0.6130   0.7477   0.8604   1.0048   5.1669   5.3799   6.0609   6.4012
     6.6907   6.9096   7.5482

          k = 0.3289 0.1587-0.1144 ( 17069 PWs)   bands (ev):

   -49.4053 -49.4049 -49.4048 -49.4045 -49.2996 -49.2995 -21.3525 -21.3471
   -21.3432 -21.3413 -21.3395 -21.3367 -21.3355 -21.3316 -21.3227 -21.3212
   -21.3189 -21.3171 -21.2301 -21.2278 -21.2269 -21.2260 -21.2208 -21.2193
    -4.7845  -4.3538  -1.9570  -1.6466  -1.4929  -1.1227  -0.8980  -0.8445
     0.6414   0.6597   0.8841   0.9659   5.2656   5.8106   5.9454   6.2058
     6.7362   6.9880   7.3622

          k = 0.3289 0.1587 0.0569 ( 17074 PWs)   bands (ev):

   -49.4053 -49.4050 -49.4047 -49.4045 -49.2996 -49.2995 -21.3530 -21.3481
   -21.3440 -21.3406 -21.3396 -21.3376 -21.3327 -21.3311 -21.3233 -21.3216
   -21.3187 -21.3171 -21.2297 -21.2276 -21.2268 -21.2260 -21.2213 -21.2194
    -4.8149  -4.3227  -1.9302  -1.5273  -1.4880  -1.2492  -0.9500  -0.8085
     0.4737   0.6023   0.9684   1.0858   5.2587   5.6091   6.1027   6.3899
     6.7011   6.9635   7.3639

          k = 0.3288 0.3173 0.2281 ( 17082 PWs)   bands (ev):

   -49.4051 -49.4049 -49.4048 -49.4047 -49.2995 -49.2995 -21.3519 -21.3490
   -21.3439 -21.3428 -21.3404 -21.3385 -21.3338 -21.3326 -21.3210 -21.3201
   -21.3177 -21.3165 -21.2301 -21.2276 -21.2258 -21.2256 -21.2216 -21.2199
    -4.5378  -4.3612  -1.9224  -1.8148  -1.6625  -1.2926  -0.9811  -0.9454
     0.4685   0.5477   1.0065   1.0946   5.6280   5.8512   6.0638   6.5250
     6.8997   7.1821   7.3949

          k = 0.3288 0.3173 0.3994 ( 17070 PWs)   bands (ev):

   -49.4051 -49.4049 -49.4048 -49.4047 -49.2996 -49.2995 -21.3506 -21.3487
   -21.3427 -21.3420 -21.3401 -21.3377 -21.3366 -21.3353 -21.3212 -21.3192
   -21.3176 -21.3169 -21.2293 -21.2273 -21.2258 -21.2254 -21.2216 -21.2209
    -4.4836  -4.4079  -1.9245  -1.9082  -1.5914  -1.3875  -0.9548  -0.9042
     0.5264   0.7945   0.8531   1.0169   5.7434   5.7962   6.1394   6.5000
     6.8371   7.0460   7.3574

          k = 0.3289 0.3173-0.1144 ( 17061 PWs)   bands (ev):

   -49.4052 -49.4049 -49.4048 -49.4046 -49.2996 -49.2995 -21.3543 -21.3509
   -21.3430 -21.3423 -21.3396 -21.3387 -21.3337 -21.3306 -21.3213 -21.3190
   -21.3175 -21.3169 -21.2307 -21.2285 -21.2256 -21.2252 -21.2212 -21.2197
    -4.6000  -4.3231  -1.7975  -1.7181  -1.6969  -1.1327  -1.1156  -1.0276
     0.3903   0.4917   0.9551   1.0058   5.7476   5.9659   6.2229   6.4572
     6.8856   7.2521   7.5117

          k = 0.3289 0.3173 0.0569 ( 17054 PWs)   bands (ev):

   -49.4052 -49.4049 -49.4048 -49.4046 -49.2996 -49.2995 -21.3550 -21.3519
   -21.3435 -21.3420 -21.3403 -21.3393 -21.3309 -21.3295 -21.3214 -21.3197
   -21.3175 -21.3166 -21.2309 -21.2294 -21.2257 -21.2254 -21.2205 -21.2194
    -4.6232  -4.3075  -1.8251  -1.6560  -1.5739  -1.2592  -1.0749  -1.0461
     0.2676   0.4511   0.9828   1.0661   5.7337   5.8759   6.0534   6.7272
     6.9300   7.2793   7.7170

          k = 0.3288-0.4760 0.2281 ( 17052 PWs)   bands (ev):

   -49.4049 -49.4049 -49.4048 -49.4048 -49.2995 -49.2995 -21.3512 -21.3512
   -21.3439 -21.3439 -21.3399 -21.3399 -21.3334 -21.3334 -21.3186 -21.3186
   -21.3174 -21.3174 -21.2292 -21.2292 -21.2254 -21.2254 -21.2207 -21.2207
    -4.3853  -4.3853  -1.9185  -1.9185  -1.4836  -1.4836  -1.0750  -1.0750
     0.4840   0.4840   1.0350   1.0350   5.8727   5.8727   6.3608   6.3608
     7.2742   7.2742   7.7755

          k = 0.3288-0.4760 0.3994 ( 17042 PWs)   bands (ev):

   -49.4049 -49.4049 -49.4048 -49.4048 -49.2995 -49.2995 -21.3502 -21.3502
   -21.3424 -21.3424 -21.3399 -21.3399 -21.3360 -21.3360 -21.3188 -21.3188
   -21.3171 -21.3171 -21.2281 -21.2281 -21.2251 -21.2251 -21.2218 -21.2218
    -4.3779  -4.3779  -1.9645  -1.9645  -1.4741  -1.4741  -1.0779  -1.0779
     0.5903   0.5903   0.9823   0.9823   5.8431   5.8431   6.5748   6.5748
     7.0145   7.0145   7.6984

          k = 0.3289-0.4760-0.1144 ( 17044 PWs)   bands (ev):

   -49.4050 -49.4050 -49.4047 -49.4047 -49.2995 -49.2995 -21.3536 -21.3536
   -21.3432 -21.3432 -21.3399 -21.3399 -21.3313 -21.3313 -21.3187 -21.3187
   -21.3173 -21.3173 -21.2301 -21.2301 -21.2250 -21.2250 -21.2205 -21.2205
    -4.4028  -4.4028  -1.8824  -1.8824  -1.3977  -1.3977  -1.0603  -1.0603
     0.2930   0.2930   1.0154   1.0154   5.8375   5.8375   6.7420   6.7420
     7.1021   7.1021   7.9826

          k = 0.3289-0.4760 0.0569 ( 17066 PWs)   bands (ev):

   -49.4050 -49.4050 -49.4047 -49.4047 -49.2995 -49.2995 -21.3545 -21.3545
   -21.3433 -21.3433 -21.3404 -21.3404 -21.3295 -21.3295 -21.3183 -21.3183
   -21.3178 -21.3178 -21.2309 -21.2309 -21.2251 -21.2251 -21.2197 -21.2197
    -4.4099  -4.4099  -1.8522  -1.8522  -1.3242  -1.3242  -1.1303  -1.1303
     0.2307   0.2307   1.0298   1.0298   5.8004   5.8004   6.6448   6.6449
     7.4194   7.4194   7.9943

          k =-0.4932 0.0000-0.3422 ( 17098 PWs)   bands (ev):

   -49.4051 -49.4049 -49.4048 -49.4047 -49.2995 -49.2995 -21.3500 -21.3471
   -21.3403 -21.3376 -21.3374 -21.3359 -21.3358 -21.3352 -21.3276 -21.3217
   -21.3211 -21.3186 -21.2314 -21.2276 -21.2264 -21.2260 -21.2201 -21.2186
    -4.5224  -4.4969  -2.3860  -2.3273  -0.9791  -0.7282  -0.6987  -0.5802
     0.4522   0.6875   0.7987   1.0867   4.7675   4.8989   6.2415   6.3042
     6.8758   7.2201   7.6902

          k =-0.4933 0.0000-0.1709 ( 17092 PWs)   bands (ev):

   -49.4051 -49.4050 -49.4047 -49.4047 -49.2995 -49.2995 -21.3497 -21.3463
   -21.3442 -21.3395 -21.3377 -21.3365 -21.3342 -21.3337 -21.3251 -21.3220
   -21.3206 -21.3190 -21.2303 -21.2275 -21.2263 -21.2259 -21.2206 -21.2193
    -4.5449  -4.5275  -2.2033  -2.1446  -1.1070  -0.9390  -0.7888  -0.6533
     0.5297   0.7601   0.7681   1.0489   4.9748   5.1406   6.3873   6.6349
     6.7409   6.8879   7.0667

          k =-0.4931 0.0000-0.6847 ( 17118 PWs)   bands (ev):

   -49.4051 -49.4051 -49.4046 -49.4046 -49.2995 -49.2995 -21.3481 -21.3481
   -21.3435 -21.3435 -21.3377 -21.3377 -21.3325 -21.3325 -21.3228 -21.3228
   -21.3197 -21.3197 -21.2283 -21.2283 -21.2260 -21.2260 -21.2206 -21.2206
    -4.5613  -4.5613  -1.8890  -1.8890  -1.3360  -1.3360  -0.7543  -0.7543
     0.6610   0.6610   0.9272   0.9272   5.5239   5.5239   5.9390   5.9390
     6.7965   6.7967   7.5861

          k =-0.4932 0.1587-0.3422 ( 17104 PWs)   bands (ev):

   -49.4050 -49.4049 -49.4048 -49.4047 -49.2995 -49.2995 -21.3499 -21.3480
   -21.3415 -21.3408 -21.3380 -21.3364 -21.3363 -21.3357 -21.3242 -21.3202
   -21.3199 -21.3179 -21.2310 -21.2275 -21.2258 -21.2257 -21.2206 -21.2193
    -4.4739  -4.4506  -2.2902  -2.2374  -1.1146  -0.9083  -0.8737  -0.7943
     0.4625   0.7002   0.9424   1.0214   5.0722   5.1576   6.0987   6.6018
     6.9885   7.4046   7.4766

          k =-0.4933 0.1587-0.1709 ( 17101 PWs)   bands (ev):

   -49.4051 -49.4050 -49.4047 -49.4047 -49.2995 -49.2995 -21.3517 -21.3473
   -21.3442 -21.3406 -21.3396 -21.3377 -21.3339 -21.3322 -21.3233 -21.3207
   -21.3193 -21.3181 -21.2308 -21.2276 -21.2257 -21.2255 -21.2212 -21.2192
    -4.4945  -4.4785  -2.1282  -2.0701  -1.2024  -1.0297  -0.9410  -0.8457
     0.4683   0.6384   0.9060   1.0312   5.2585   5.4150   6.2577   6.3939
     6.8881   6.9948   7.5615

          k =-0.4931 0.1587-0.6847 ( 17060 PWs)   bands (ev):

   -49.4051 -49.4051 -49.4046 -49.4046 -49.2995 -49.2995 -21.3512 -21.3512
   -21.3421 -21.3421 -21.3391 -21.3391 -21.3316 -21.3316 -21.3216 -21.3216
   -21.3186 -21.3186 -21.2293 -21.2293 -21.2256 -21.2256 -21.2203 -21.2203
    -4.5095  -4.5095  -1.8623  -1.8623  -1.3031  -1.3031  -0.9580  -0.9580
     0.5615   0.5615   0.9362   0.9362   5.7142   5.7142   6.0100   6.0100
     6.9369   6.9371   7.8242

          k =-0.4932 0.3173-0.3422 ( 17072 PWs)   bands (ev):

   -49.4050 -49.4049 -49.4048 -49.4048 -49.2996 -49.2995 -21.3504 -21.3500
   -21.3434 -21.3427 -21.3396 -21.3386 -21.3367 -21.3365 -21.3196 -21.3177
   -21.3176 -21.3168 -21.2299 -21.2275 -21.2251 -21.2248 -21.2216 -21.2209
    -4.3650  -4.3500  -2.0198  -1.9825  -1.4420  -1.3594  -1.1672  -1.1436
     0.4756   0.8248   0.8270   1.0681   5.5426   5.9369   6.0995   6.6817
     7.1742   7.4134   7.4202

          k =-0.4933 0.3173-0.1709 ( 17066 PWs)   bands (ev):

   -49.4050 -49.4050 -49.4047 -49.4047 -49.2996 -49.2995 -21.3535 -21.3514
   -21.3439 -21.3437 -21.3405 -21.3391 -21.3335 -21.3315 -21.3195 -21.3183
   -21.3171 -21.3168 -21.2312 -21.2288 -21.2249 -21.2247 -21.2212 -21.2196
    -4.3812  -4.3707  -1.9665  -1.9030  -1.4659  -1.3506  -1.0923  -1.0582
     0.3025   0.4273   1.0152   1.0298   5.7338   5.8302   6.2553   6.6956
     6.9721   7.5527   8.0040

          k =-0.4931 0.3173-0.6847 ( 17050 PWs)   bands (ev):

   -49.4050 -49.4050 -49.4047 -49.4047 -49.2995 -49.2995 -21.3546 -21.3546
   -21.3435 -21.3435 -21.3404 -21.3404 -21.3298 -21.3298 -21.3190 -21.3190
   -21.3169 -21.3169 -21.2312 -21.2312 -21.2248 -21.2248 -21.2196 -21.2196
    -4.3937  -4.3937  -1.9016  -1.9016  -1.2284  -1.2284  -1.1569  -1.1569
     0.1965   0.1965   0.9893   0.9893   5.7913   5.7913   6.5871   6.5871
     7.4574   7.4575   8.0907

          k =-0.4932-0.4760-0.3422 ( 17000 PWs)   bands (ev):

   -49.4049 -49.4049 -49.4048 -49.4048 -49.2996 -49.2996 -21.3512 -21.3512
   -21.3427 -21.3427 -21.3408 -21.3408 -21.3368 -21.3368 -21.3171 -21.3171
   -21.3165 -21.3165 -21.2284 -21.2284 -21.2246 -21.2246 -21.2219 -21.2219
    -4.2988  -4.2988  -1.6890  -1.6890  -1.6038  -1.6038  -1.4768  -1.4768
     0.6151   0.6151   0.9883   0.9883   6.0342   6.0342   6.2458   6.2458
     7.5637   7.5638   7.9275

          k =-0.4933-0.4760-0.1709 ( 17062 PWs)   bands (ev):

   -49.4050 -49.4050 -49.4047 -49.4047 -49.2996 -49.2996 -21.3536 -21.3536
   -21.3446 -21.3446 -21.3403 -21.3403 -21.3323 -21.3323 -21.3172 -21.3172
   -21.3165 -21.3165 -21.2305 -21.2305 -21.2245 -21.2245 -21.2204 -21.2204
    -4.3135  -4.3135  -1.8994  -1.8994  -1.3688  -1.3688  -1.2976  -1.2976
     0.2857   0.2857   1.0250   1.0250   5.8302   5.8302   6.7404   6.7404
     7.6961   7.6961   8.0732

          k =-0.4931-0.4760-0.6847 ( 17016 PWs)   bands (ev):

   -49.4050 -49.4050 -49.4047 -49.4047 -49.2996 -49.2996 -21.3558 -21.3558
   -21.3444 -21.3444 -21.3410 -21.3410 -21.3290 -21.3290 -21.3173 -21.3173
   -21.3165 -21.3165 -21.2321 -21.2321 -21.2244 -21.2244 -21.2193 -21.2193
    -4.3277  -4.3277  -1.9917  -1.9917  -1.1784  -1.1784  -1.1418  -1.1418
    -0.0230  -0.0230   0.9914   0.9914   5.7793   5.7793   7.1030   7.1030
     7.8682   7.8683   8.1095

     the Fermi energy is     3.2702 ev

!    total energy              =    -665.34048474 Ry
     estimated scf accuracy    <          1.4E-11 Ry
     smearing contrib. (-TS)   =      -0.00000000 Ry
     internal energy E=F+TS    =    -665.34048474 Ry

     The total energy is F=E-TS. E is the sum of the following terms:
     one-electron contribution =    -487.81828386 Ry
     hartree contribution      =     256.95194747 Ry
     xc contribution           =    -100.09925418 Ry
     ewald contribution        =    -265.04560858 Ry
     one-center paw contrib.   =     -69.32928558 Ry

     convergence has been achieved in  10 iterations

     Forces acting on atoms (cartesian axes, Ry/au):

     atom    1 type  1   force =     0.00000000    0.00000000    0.00000000
     atom    2 type  1   force =     0.00000000    0.00000000    0.00000000
     atom    3 type  3   force =     0.00000000    0.00000000    0.00000000
     atom    4 type  3   force =     0.00000000    0.00000000    0.00000000
     atom    5 type  3   force =    -0.00015035    0.00023187   -0.00001191
     atom    6 type  3   force =     0.00015035   -0.00023187    0.00001191
     atom    7 type  3   force =     0.00015035    0.00023187    0.00001191
     atom    8 type  3   force =    -0.00015035   -0.00023187   -0.00001191
     atom    9 type  2   force =     0.00004851    0.00008671    0.00012256
     atom   10 type  2   force =    -0.00004851   -0.00008671   -0.00012256
     atom   11 type  2   force =    -0.00004851    0.00008671   -0.00012256
     atom   12 type  2   force =     0.00004851   -0.00008671    0.00012256
     atom   13 type  2   force =     0.00006226   -0.00006011   -0.00006621
     atom   14 type  2   force =    -0.00006226    0.00006011    0.00006621
     atom   15 type  2   force =    -0.00006226   -0.00006011    0.00006621
     atom   16 type  2   force =     0.00006226    0.00006011   -0.00006621
     atom   17 type  2   force =    -0.00000956   -0.00006143    0.00006169
     atom   18 type  2   force =     0.00000956    0.00006143   -0.00006169
     atom   19 type  2   force =     0.00000956   -0.00006143   -0.00006169
     atom   20 type  2   force =    -0.00000956    0.00006143    0.00006169

     Total force =     0.000696     Total SCF correction =     0.000003


     Computing stress (Cartesian axis) and pressure

          total   stress  (Ry/bohr**3)                   (kbar)     P=       -0.02
   0.00000025   0.00000000   0.00000043            0.04        0.00        0.06
   0.00000000  -0.00000144   0.00000000            0.00       -0.21        0.00
   0.00000043   0.00000000   0.00000072            0.06        0.00        0.11

 
     init_run     :      1.34s CPU      1.55s WALL (       2 calls)
     electrons    :    116.45s CPU    119.22s WALL (      10 calls)
     update_pot   :      1.78s CPU      1.79s WALL (       8 calls)
     forces       :      2.18s CPU      2.21s WALL (      10 calls)
     stress       :      4.98s CPU      5.00s WALL (      10 calls)

     Called by init_run:
     wfcinit      :      0.72s CPU      0.78s WALL (       2 calls)
     potinit      :      0.23s CPU      0.27s WALL (       2 calls)
     hinit0       :      0.27s CPU      0.32s WALL (       2 calls)

     Called by electrons:
     c_bands      :     96.70s CPU     98.92s WALL (     108 calls)
     sum_band     :     14.28s CPU     14.50s WALL (     108 calls)
     v_of_rho     :      0.68s CPU      0.70s WALL (     116 calls)
     newd         :      0.81s CPU      0.83s WALL (     116 calls)
     PAW_pot      :      4.26s CPU      4.31s WALL (     124 calls)
     mix_rho      :      0.22s CPU      0.23s WALL (     108 calls)

     Called by c_bands:
     init_us_2    :      1.28s CPU      1.39s WALL (    4674 calls)
     init_us_2:cp :      1.26s CPU      1.38s WALL (    4674 calls)
     cegterg      :     87.22s CPU     88.66s WALL (    2052 calls)

     Called by *egterg:
     cdiaghg      :     14.16s CPU     14.28s WALL (    7564 calls)
     h_psi        :     62.44s CPU     63.66s WALL (    7792 calls)
     s_psi        :      2.08s CPU      2.12s WALL (    7792 calls)
     g_psi        :      0.21s CPU      0.21s WALL (    5702 calls)

     Called by h_psi:
     h_psi:calbec :      3.53s CPU      3.63s WALL (    7792 calls)
     vloc_psi     :     56.32s CPU     57.40s WALL (    7792 calls)
     add_vuspsi   :      2.24s CPU      2.28s WALL (    7792 calls)

     General routines
     calbec       :      5.11s CPU      5.23s WALL (   10946 calls)
     fft          :      0.54s CPU      0.58s WALL (    1748 calls)
     ffts         :      0.07s CPU      0.07s WALL (     224 calls)
     fftw         :     61.04s CPU     62.15s WALL (  575308 calls)
     interpolate  :      0.08s CPU      0.08s WALL (     116 calls)
 
     Parallel routines
 
     PWSCF        :   2m 7.58s CPU   2m10.88s WALL

 
   This run was terminated on:  19:59:55  31Oct2023            

=------------------------------------------------------------------------------=
   JOB DONE.
=------------------------------------------------------------------------------=
Job execution finished at: Tue Oct 31 19:59:56 IST 2023
