==========================================
SLURM_CLUSTER_NAME = paramganga
SLURM_ARRAY_JOB_ID = 
SLURM_ARRAY_TASK_ID = 
SLURM_ARRAY_TASK_COUNT = 
SLURM_ARRAY_TASK_MAX = 
SLURM_ARRAY_TASK_MIN = 
SLURM_JOB_ACCOUNT = iitr
SLURM_JOB_ID = 168264
SLURM_JOB_NAME = 19280
SLURM_JOB_NODELIST = cn[001-003]
SLURM_JOB_USER = garima.iitr
SLURM_JOB_UID = 38339
SLURM_JOB_PARTITION = small
SLURM_TASK_PID = 42094
SLURM_SUBMIT_DIR = /home/garima.iitr/.cache/.es/compmat/na3alh6
SLURM_CPUS_ON_NODE = 48
SLURM_NTASKS = 144
SLURM_TASK_PID = 42094
==========================================
cn001
 
:: initializing oneAPI environment ...
   slurm_script: BASH_VERSION = 4.2.46(2)-release
   args: Using "$@" for setvars.sh arguments: 
:: advisor -- latest
:: ccl -- latest
:: clck -- latest
:: compiler -- latest
:: dal -- latest
:: debugger -- latest
:: dev-utilities -- latest
:: dnnl -- latest
:: dpcpp-ct -- latest
:: dpl -- latest
:: inspector -- latest
:: intelpython -- latest
:: ipp -- latest
:: ippcp -- latest
:: ipp -- latest
:: itac -- latest
:: mkl -- latest
:: mpi -- latest
:: tbb -- latest
:: vpl -- latest
:: vtune -- latest
:: oneAPI environment initialized ::
 
Job execution start: Tue Oct 31 19:15:09 IST 2023
Job submitted by garima.iitr
The job ID is:168264

     Program PWSCF v.7.1 starts on 31Oct2023 at 19:15:13 

     This program is part of the open-source Quantum ESPRESSO suite
     for quantum simulation of materials; please cite
         "P. Giannozzi et al., J. Phys.:Condens. Matter 21 395502 (2009);
         "P. Giannozzi et al., J. Phys.:Condens. Matter 29 465901 (2017);
         "P. Giannozzi et al., J. Chem. Phys. 152 154105 (2020);
          URL http://www.quantum-espresso.org", 
     in publications or presentations arising from this work. More details at
     http://www.quantum-espresso.org/quote

     Parallel version (MPI & OpenMP), running on     144 processor cores
     Number of MPI processes:               144
     Threads/MPI process:                     1

     MPI processes distributed on     3 nodes
     167660 MiB available memory on the printing compute node when the environment starts
 
     Reading input from na3alh6.in

     Current dimensions of program PWSCF are:
     Max number of different atomic species (ntypx) = 10
     Max number of k-points (npk) =  40000
     Max angular momentum in pseudopotentials (lmaxx) =  4
     file Al.pbe-n-kjpaw_psl.1.0.0.UPF: wavefunction(s)  3S 3P renormalized

     IMPORTANT: XC functional enforced from input :
     Exchange-correlation= PBE
                           (   1   4   3   4   0   0   0)
     Any further DFT definition will be discarded
     Please, verify this is what you really want

     Message from routine setup:
     using ibrav=0 with symmetry is DISCOURAGED, use correct ibrav instead
 
     K-points division:     npool     =       3
     R & G space division:  proc/nbgrp/npool/nimage =      48
     Subspace diagonalization in iterative solution of the eigenvalue problem:
     a serial algorithm will be used

 
     Parallelization info
     --------------------
     sticks:   dense  smooth     PW     G-vecs:    dense   smooth      PW
     Min          64      51     14                 3815     2728     416
     Max          65      52     15                 3823     2736     423
     Sum        3087    2479    707               183223   131109   20173
 
     Using Slab Decomposition
 


     bravais-lattice index     =            0
     lattice parameter (alat)  =      10.0031  a.u.
     unit-cell volume          =    1494.3871 (a.u.)^3
     number of atoms/cell      =           20
     number of atomic types    =            3
     number of electrons       =        72.00
     number of Kohn-Sham states=           43
     kinetic-energy cutoff     =      75.0000  Ry
     charge density cutoff     =     375.0000  Ry
     scf convergence threshold =      1.0E-08
     mixing beta               =       0.7000
     number of iterations used =            8  plain     mixing
     energy convergence thresh.=      1.0E-04
     force convergence thresh. =      1.0E-03
     Exchange-correlation= PBE
                           (   1   4   3   4   0   0   0)
     nstep                     =           50


     celldm(1)=  10.003076  celldm(2)=   0.000000  celldm(3)=   0.000000
     celldm(4)=   0.000000  celldm(5)=   0.000000  celldm(6)=   0.000000

     crystal axes: (cart. coord. in units of alat)
               a(1) = (   1.000000   0.000000   0.000000 )  
               a(2) = (   0.000000   1.037180   0.000000 )  
               a(3) = (  -0.999562   0.000000   1.439488 )  

     reciprocal axes: (cart. coord. in units 2 pi/alat)
               b(1) = (  1.000000  0.000000  0.694387 )  
               b(2) = (  0.000000  0.964153  0.000000 )  
               b(3) = (  0.000000  0.000000  0.694691 )  


     PseudoPot. # 1 for Al read from file:
     /home/garima.iitr/.cache/.es/compmat/na3alh6/Al.pbe-n-kjpaw_psl.1.0.0.UPF
     MD5 check sum: 502b6b27b9c6270cab5dd1084b96fa6d
     Pseudo is Projector augmented-wave + core cor, Zval =  3.0
     Generated using &quot;atomic&quot; code by A. Dal Corso  v.6.3
     Shape of augmentation charge: PSQ
     Using radial grid of 1135 points,  6 beta functions with: 
                l(1) =   0
                l(2) =   0
                l(3) =   1
                l(4) =   1
                l(5) =   2
                l(6) =   2
     Q(r) pseudized with 0 coefficients 


     PseudoPot. # 2 for H  read from file:
     /home/garima.iitr/.cache/.es/compmat/na3alh6/H.pbe-rrkjus_psl.1.0.0.UPF
     MD5 check sum: 3f4114867bd07edc7f1424d066fc1888
     Pseudo is Ultrasoft, Zval =  1.0
     Generated using &quot;atomic&quot; code by A. Dal Corso  v.6.3MaX
     Using radial grid of  929 points,  2 beta functions with: 
                l(1) =   0
                l(2) =   0
     Q(r) pseudized with 0 coefficients 


     PseudoPot. # 3 for Na read from file:
     /home/garima.iitr/.cache/.es/compmat/na3alh6/na_pbe_v1.5.uspp.F.UPF
     MD5 check sum: 44600605ef58000f06b90626533354dc
     Pseudo is Ultrasoft, Zval =  9.0
     Generated by new atomic code, or converted to UPF format
     Using radial grid of  819 points,  5 beta functions with: 
                l(1) =   0
                l(2) =   0
                l(3) =   1
                l(4) =   1
                l(5) =   2
     Q(r) pseudized with  8 coefficients,  rinner =    1.250   1.250   1.250
                                                       1.250   1.250

     atomic species   valence    mass     pseudopotential
        Al             3.00    26.98100     Al( 1.00)
        H              1.00     1.00750     H ( 1.00)
        Na             9.00    22.98900     Na( 1.00)

      4 Sym. Ops., with inversion, found ( 2 have fractional translation)



   Cartesian axes

     site n.     atom                  positions (alat units)
         1           Al  tau(   1) = (   0.5000000   0.0000000   0.0000000  )
         2           Al  tau(   2) = (   0.0002188   0.5185901   0.7197441  )
         3           Na  tau(   3) = (  -0.4997812   0.0000000   0.7197441  )
         4           Na  tau(   4) = (   0.0000000   0.5185901   0.0000000  )
         5           Na  tau(   5) = (   0.0112779   0.9881424   0.3547907  )
         6           Na  tau(   6) = (  -0.0108402   0.0490379   1.0846976  )
         7           Na  tau(   7) = (   0.4889410   0.4695522   0.3649535  )
         8           Na  tau(   8) = (  -0.4885033   0.5676280   1.0745348  )
         9           H   tau(   9) = (  -0.1610436   0.7957662   0.8104031  )
        10           H   tau(  10) = (   0.1614812   0.2414141   0.6290852  )
        11           H   tau(  11) = (  -0.3382999   0.2771761   1.3488293  )
        12           H   tau(  12) = (   0.3387376   0.7600042   0.0906590  )
        13           H   tau(  13) = (  -0.2276214   0.8611500   1.3769569  )
        14           H   tau(  14) = (   0.2280590   0.1760302   0.0625314  )
        15           H   tau(  15) = (  -0.2717222   0.3425599   0.7822755  )
        16           H   tau(  16) = (   0.2721598   0.6946204   0.6572128  )
        17           H   tau(  17) = (  -0.5991672   0.9877068   1.1274936  )
        18           H   tau(  18) = (   0.5996049   0.0494735   0.3119947  )
        19           H   tau(  19) = (   0.0998237   0.4691166   1.0317388  )
        20           H   tau(  20) = (  -0.0993860   0.5680636   0.4077495  )

     number of k points=    56  Marzari-Vanderbilt smearing, width (Ry)=  0.0050
                       cart. coord. in units 2pi/alat
        k(    1) = (   0.0000000   0.0000000   0.0000000), wk =   0.0138889
        k(    2) = (   0.0000000   0.0000000   0.1736728), wk =   0.0277778
        k(    3) = (   0.0000000   0.0000000  -0.3473457), wk =   0.0138889
        k(    4) = (   0.0000000   0.1606921   0.0000000), wk =   0.0277778
        k(    5) = (   0.0000000   0.1606921   0.1736728), wk =   0.0555556
        k(    6) = (   0.0000000   0.1606921  -0.3473457), wk =   0.0277778
        k(    7) = (   0.0000000   0.3213842   0.0000000), wk =   0.0277778
        k(    8) = (   0.0000000   0.3213842   0.1736728), wk =   0.0555556
        k(    9) = (   0.0000000   0.3213842  -0.3473457), wk =   0.0277778
        k(   10) = (   0.0000000  -0.4820763   0.0000000), wk =   0.0138889
        k(   11) = (   0.0000000  -0.4820763   0.1736728), wk =   0.0277778
        k(   12) = (   0.0000000  -0.4820763  -0.3473457), wk =   0.0138889
        k(   13) = (   0.1666667   0.0000000   0.1157312), wk =   0.0277778
        k(   14) = (   0.1666667   0.0000000   0.2894040), wk =   0.0277778
        k(   15) = (   0.1666667   0.0000000  -0.2316144), wk =   0.0277778
        k(   16) = (   0.1666667   0.0000000  -0.0579416), wk =   0.0277778
        k(   17) = (   0.1666667   0.1606921   0.1157312), wk =   0.0555556
        k(   18) = (   0.1666667   0.1606921   0.2894040), wk =   0.0555556
        k(   19) = (   0.1666667   0.1606921  -0.2316144), wk =   0.0555556
        k(   20) = (   0.1666667   0.1606921  -0.0579416), wk =   0.0555556
        k(   21) = (   0.1666667   0.3213842   0.1157312), wk =   0.0555556
        k(   22) = (   0.1666667   0.3213842   0.2894040), wk =   0.0555556
        k(   23) = (   0.1666667   0.3213842  -0.2316144), wk =   0.0555556
        k(   24) = (   0.1666667   0.3213842  -0.0579416), wk =   0.0555556
        k(   25) = (   0.1666667  -0.4820763   0.1157312), wk =   0.0277778
        k(   26) = (   0.1666667  -0.4820763   0.2894040), wk =   0.0277778
        k(   27) = (   0.1666667  -0.4820763  -0.2316144), wk =   0.0277778
        k(   28) = (   0.1666667  -0.4820763  -0.0579416), wk =   0.0277778
        k(   29) = (   0.3333333   0.0000000   0.2314624), wk =   0.0277778
        k(   30) = (   0.3333333   0.0000000   0.4051353), wk =   0.0277778
        k(   31) = (   0.3333333   0.0000000  -0.1158832), wk =   0.0277778
        k(   32) = (   0.3333333   0.0000000   0.0577896), wk =   0.0277778
        k(   33) = (   0.3333333   0.1606921   0.2314624), wk =   0.0555556
        k(   34) = (   0.3333333   0.1606921   0.4051353), wk =   0.0555556
        k(   35) = (   0.3333333   0.1606921  -0.1158832), wk =   0.0555556
        k(   36) = (   0.3333333   0.1606921   0.0577896), wk =   0.0555556
        k(   37) = (   0.3333333   0.3213842   0.2314624), wk =   0.0555556
        k(   38) = (   0.3333333   0.3213842   0.4051353), wk =   0.0555556
        k(   39) = (   0.3333333   0.3213842  -0.1158832), wk =   0.0555556
        k(   40) = (   0.3333333   0.3213842   0.0577896), wk =   0.0555556
        k(   41) = (   0.3333333  -0.4820763   0.2314624), wk =   0.0277778
        k(   42) = (   0.3333333  -0.4820763   0.4051353), wk =   0.0277778
        k(   43) = (   0.3333333  -0.4820763  -0.1158832), wk =   0.0277778
        k(   44) = (   0.3333333  -0.4820763   0.0577896), wk =   0.0277778
        k(   45) = (  -0.5000000   0.0000000  -0.3471936), wk =   0.0138889
        k(   46) = (  -0.5000000   0.0000000  -0.1735208), wk =   0.0277778
        k(   47) = (  -0.5000000   0.0000000  -0.6945393), wk =   0.0138889
        k(   48) = (  -0.5000000   0.1606921  -0.3471936), wk =   0.0277778
        k(   49) = (  -0.5000000   0.1606921  -0.1735208), wk =   0.0555556
        k(   50) = (  -0.5000000   0.1606921  -0.6945393), wk =   0.0277778
        k(   51) = (  -0.5000000   0.3213842  -0.3471936), wk =   0.0277778
        k(   52) = (  -0.5000000   0.3213842  -0.1735208), wk =   0.0555556
        k(   53) = (  -0.5000000   0.3213842  -0.6945393), wk =   0.0277778
        k(   54) = (  -0.5000000  -0.4820763  -0.3471936), wk =   0.0138889
        k(   55) = (  -0.5000000  -0.4820763  -0.1735208), wk =   0.0277778
        k(   56) = (  -0.5000000  -0.4820763  -0.6945393), wk =   0.0138889

     Dense  grid:   183223 G-vectors     FFT dimensions: (  64,  64, 120)

     Smooth grid:   131109 G-vectors     FFT dimensions: (  60,  60, 100)

     Estimated max dynamical RAM per process >      16.86 MB

     Estimated total dynamical RAM >       2.28 GB

     Initial potential from superposition of free atoms

     starting charge      71.9576, renormalised to      72.0000
     Starting wfcs are   50 randomized atomic wfcs
     Checking if some PAW data can be deallocated... 

     total cpu time spent up to now is        1.2 secs

     Self-consistent Calculation

     iteration #  1     ecut=    75.00 Ry     beta= 0.70
     Davidson diagonalization with overlap
     ethr =  1.00E-02,  avg # of iterations =  5.6

     total cpu time spent up to now is        2.4 secs

     total energy              =    -665.23195712 Ry
     estimated scf accuracy    <       0.94135897 Ry

     iteration #  2     ecut=    75.00 Ry     beta= 0.70
     Davidson diagonalization with overlap
     ethr =  1.31E-03,  avg # of iterations =  2.1

     total cpu time spent up to now is        3.3 secs

     total energy              =    -665.33047924 Ry
     estimated scf accuracy    <       0.02136993 Ry

     iteration #  3     ecut=    75.00 Ry     beta= 0.70
     Davidson diagonalization with overlap
     c_bands:  1 eigenvalues not converged
     ethr =  2.97E-05,  avg # of iterations =  9.4

     total cpu time spent up to now is        5.0 secs

     total energy              =    -665.33700479 Ry
     estimated scf accuracy    <       0.00183305 Ry

     iteration #  4     ecut=    75.00 Ry     beta= 0.70
     Davidson diagonalization with overlap
     ethr =  2.55E-06,  avg # of iterations =  4.0

     total cpu time spent up to now is        6.2 secs

     total energy              =    -665.33744199 Ry
     estimated scf accuracy    <       0.00009489 Ry

     iteration #  5     ecut=    75.00 Ry     beta= 0.70
     Davidson diagonalization with overlap
     ethr =  1.32E-07,  avg # of iterations =  3.7

     total cpu time spent up to now is        7.2 secs

     total energy              =    -665.33746498 Ry
     estimated scf accuracy    <       0.00000948 Ry

     iteration #  6     ecut=    75.00 Ry     beta= 0.70
     Davidson diagonalization with overlap
     ethr =  1.32E-08,  avg # of iterations =  2.0

     total cpu time spent up to now is        8.5 secs

     total energy              =    -665.33746607 Ry
     estimated scf accuracy    <       0.00000017 Ry

     iteration #  7     ecut=    75.00 Ry     beta= 0.70
     Davidson diagonalization with overlap
     ethr =  2.40E-10,  avg # of iterations =  4.0

     total cpu time spent up to now is        9.6 secs

     total energy              =    -665.33746616 Ry
     estimated scf accuracy    <       0.00000007 Ry

     iteration #  8     ecut=    75.00 Ry     beta= 0.70
     Davidson diagonalization with overlap
     ethr =  9.12E-11,  avg # of iterations =  3.0

     total cpu time spent up to now is       10.6 secs

     total energy              =    -665.33746617 Ry
     estimated scf accuracy    <       0.00000001 Ry

     iteration #  9     ecut=    75.00 Ry     beta= 0.70
     Davidson diagonalization with overlap
     ethr =  1.76E-11,  avg # of iterations =  3.2

     total cpu time spent up to now is       11.6 secs

     End of self-consistent calculation

          k = 0.0000 0.0000 0.0000 ( 16357 PWs)   bands (ev):

   -49.1170 -49.1163 -49.1157 -49.1153 -48.9998 -48.9995 -21.0693 -21.0642
   -21.0605 -21.0546 -21.0519 -21.0512 -21.0486 -21.0474 -21.0365 -21.0324
   -21.0308 -21.0281 -20.9361 -20.9310 -20.9302 -20.9284 -20.9222 -20.9197
    -5.1793  -4.1881  -1.8580  -1.1091  -0.9974  -0.4517  -0.4149  -0.3959
     0.0881   0.8983   1.1950   1.5874   4.5263   5.4549   6.1369   6.8566
     7.0378   7.4231   7.7870

          k = 0.0000 0.0000 0.1737 ( 16402 PWs)   bands (ev):

   -49.1169 -49.1164 -49.1156 -49.1153 -48.9998 -48.9996 -21.0681 -21.0633
   -21.0601 -21.0551 -21.0537 -21.0521 -21.0483 -21.0456 -21.0361 -21.0325
   -21.0317 -21.0289 -20.9350 -20.9314 -20.9295 -20.9283 -20.9226 -20.9208
    -5.0699  -4.3892  -1.6312  -1.0614  -0.9289  -0.5922  -0.5749  -0.5214
     0.2984   1.0079   1.0923   1.4888   4.8826   5.6262   6.1789   6.6068
     6.7442   7.3559   7.5726

          k = 0.0000 0.0000-0.3473 ( 16392 PWs)   bands (ev):

   -49.1167 -49.1167 -49.1155 -49.1155 -48.9997 -48.9997 -21.0646 -21.0646
   -21.0590 -21.0590 -21.0521 -21.0521 -21.0470 -21.0470 -21.0342 -21.0342
   -21.0309 -21.0309 -20.9328 -20.9328 -20.9283 -20.9283 -20.9226 -20.9226
    -4.7701  -4.7701  -1.1829  -1.1829  -0.7658  -0.7658  -0.7434  -0.7434
     0.7404   0.7404   1.2526   1.2526   5.6972   5.6972   6.0774   6.0774
     6.8347   6.8347   7.4187

          k = 0.0000 0.1607 0.0000 ( 16343 PWs)   bands (ev):

   -49.1169 -49.1162 -49.1158 -49.1154 -48.9998 -48.9996 -21.0694 -21.0630
   -21.0586 -21.0577 -21.0522 -21.0515 -21.0473 -21.0450 -21.0370 -21.0335
   -21.0318 -21.0297 -20.9344 -20.9305 -20.9299 -20.9288 -20.9227 -20.9206
    -5.0872  -4.1880  -1.7746  -1.4012  -0.9435  -0.7238  -0.5625  -0.4137
     0.4095   0.9172   1.2029   1.5310   4.8521   5.5949   6.0720   6.7333
     7.0803   7.4087   7.7359

          k = 0.0000 0.1607 0.1737 ( 16375 PWs)   bands (ev):

   -49.1168 -49.1163 -49.1157 -49.1154 -48.9998 -48.9996 -21.0678 -21.0623
   -21.0589 -21.0558 -21.0544 -21.0518 -21.0479 -21.0447 -21.0367 -21.0332
   -21.0329 -21.0302 -20.9337 -20.9309 -20.9294 -20.9284 -20.9231 -20.9213
    -4.9831  -4.3587  -1.7451  -1.1782  -1.0277  -0.8759  -0.5091  -0.4446
     0.5238   0.9852   1.1288   1.4397   5.0551   5.7191   6.2010   6.6612
     6.8258   7.0388   7.5530

          k = 0.0000 0.1607-0.3473 ( 16422 PWs)   bands (ev):

   -49.1166 -49.1166 -49.1156 -49.1156 -48.9997 -48.9997 -21.0640 -21.0640
   -21.0582 -21.0582 -21.0521 -21.0521 -21.0473 -21.0473 -21.0352 -21.0352
   -21.0317 -21.0317 -20.9321 -20.9321 -20.9285 -20.9285 -20.9228 -20.9228
    -4.7018  -4.7018  -1.5068  -1.5068  -0.7152  -0.7152  -0.6589  -0.6589
     0.8304   0.8304   1.2231   1.2231   5.6019   5.6019   6.1975   6.1975
     6.9874   6.9874   7.5467

          k = 0.0000 0.3214 0.0000 ( 16414 PWs)   bands (ev):

   -49.1166 -49.1161 -49.1160 -49.1156 -48.9998 -48.9996 -21.0688 -21.0632
   -21.0592 -21.0548 -21.0535 -21.0505 -21.0456 -21.0431 -21.0374 -21.0363
   -21.0340 -21.0324 -20.9311 -20.9298 -20.9292 -20.9291 -20.9239 -20.9226
    -4.8343  -4.2598  -1.7480  -1.5404  -1.2712  -0.8490  -0.7849  -0.4541
     0.7443   1.0290   1.1541   1.3695   5.4932   5.7616   6.3192   6.4393
     7.3195   7.3474   7.5046

          k = 0.0000 0.3214 0.1737 ( 16378 PWs)   bands (ev):

   -49.1166 -49.1162 -49.1159 -49.1156 -48.9997 -48.9997 -21.0668 -21.0620
   -21.0582 -21.0549 -21.0538 -21.0506 -21.0469 -21.0445 -21.0387 -21.0358
   -21.0345 -21.0322 -20.9313 -20.9302 -20.9293 -20.9284 -20.9240 -20.9224
    -4.7508  -4.3378  -2.0366  -1.6502  -1.0323  -0.7474  -0.5625  -0.4813
     0.7763   0.9857   1.1357   1.3076   5.2988   5.6603   6.6355   6.7300
     6.8654   7.3237   7.5518

          k = 0.0000 0.3214-0.3473 ( 16386 PWs)   bands (ev):

   -49.1164 -49.1164 -49.1158 -49.1158 -48.9997 -48.9997 -21.0628 -21.0628
   -21.0565 -21.0565 -21.0516 -21.0516 -21.0476 -21.0476 -21.0382 -21.0382
   -21.0328 -21.0328 -20.9310 -20.9310 -20.9287 -20.9287 -20.9230 -20.9230
    -4.5432  -4.5432  -2.0116  -2.0116  -0.6531  -0.6531  -0.5200  -0.5200
     0.8872   0.8872   1.1694   1.1694   5.3486   5.3486   6.7966   6.7966
     7.1530   7.1530   7.6357

          k = 0.0000-0.4821 0.0000 ( 16388 PWs)   bands (ev):

   -49.1163 -49.1163 -49.1158 -49.1158 -48.9997 -48.9997 -21.0667 -21.0667
   -21.0558 -21.0558 -21.0515 -21.0515 -21.0439 -21.0439 -21.0372 -21.0372
   -21.0348 -21.0348 -20.9296 -20.9296 -20.9287 -20.9287 -20.9243 -20.9243
    -4.5053  -4.5053  -1.6953  -1.6953  -1.2036  -1.2036  -0.5939  -0.5939
     0.9651   0.9651   1.2099   1.2099   5.7898   5.7898   6.4673   6.4673
     7.0312   7.0312   8.1551

          k = 0.0000-0.4821 0.1737 ( 16422 PWs)   bands (ev):

   -49.1162 -49.1162 -49.1159 -49.1159 -48.9997 -48.9997 -21.0647 -21.0647
   -21.0559 -21.0559 -21.0507 -21.0507 -21.0459 -21.0459 -21.0388 -21.0388
   -21.0340 -21.0340 -20.9302 -20.9302 -20.9287 -20.9287 -20.9236 -20.9236
    -4.4775  -4.4775  -2.0413  -2.0413  -0.8039  -0.8039  -0.5655  -0.5655
     0.9074   0.9074   1.1943   1.1943   5.4657   5.4657   6.6155   6.6155
     7.5564   7.5564   8.0536

          k = 0.0000-0.4821-0.3473 ( 16396 PWs)   bands (ev):

   -49.1161 -49.1161 -49.1161 -49.1161 -48.9997 -48.9997 -21.0623 -21.0623
   -21.0556 -21.0556 -21.0510 -21.0510 -21.0474 -21.0474 -21.0404 -21.0404
   -21.0334 -21.0334 -20.9307 -20.9307 -20.9287 -20.9287 -20.9230 -20.9230
    -4.4479  -4.4479  -2.2458  -2.2458  -0.6222  -0.6222  -0.4479  -0.4479
     0.8557   0.8557   1.1587   1.1587   5.2426   5.2426   6.8948   6.8948
     7.3544   7.3544   8.1836

          k = 0.1667 0.0000 0.1157 ( 16395 PWs)   bands (ev):

   -49.1169 -49.1163 -49.1157 -49.1154 -48.9998 -48.9996 -21.0675 -21.0654
   -21.0573 -21.0571 -21.0529 -21.0522 -21.0463 -21.0461 -21.0366 -21.0351
   -21.0318 -21.0294 -20.9333 -20.9307 -20.9304 -20.9276 -20.9237 -20.9205
    -5.0322  -4.2493  -1.7740  -1.1899  -1.0480  -0.8607  -0.4550  -0.4542
     0.3538   0.9170   1.1660   1.5395   4.9247   5.6651   6.2786   6.5888
     6.9351   7.2026   7.2239

          k = 0.1667 0.0000 0.2894 ( 16379 PWs)   bands (ev):

   -49.1167 -49.1165 -49.1156 -49.1155 -48.9997 -48.9997 -21.0650 -21.0649
   -21.0581 -21.0576 -21.0530 -21.0509 -21.0477 -21.0463 -21.0358 -21.0356
   -21.0319 -21.0309 -20.9318 -20.9318 -20.9303 -20.9275 -20.9237 -20.9213
    -4.8034  -4.5685  -1.5807  -1.3178  -0.8941  -0.8007  -0.6129  -0.5870
     0.6464   0.9644   1.0371   1.4172   5.5261   5.5500   6.2585   6.3910
     6.5091   7.3279   7.5284

          k = 0.1667 0.0000-0.2316 ( 16381 PWs)   bands (ev):

   -49.1168 -49.1164 -49.1157 -49.1154 -48.9998 -48.9996 -21.0670 -21.0614
   -21.0605 -21.0552 -21.0531 -21.0513 -21.0505 -21.0466 -21.0357 -21.0337
   -21.0323 -21.0303 -20.9338 -20.9307 -20.9298 -20.9293 -20.9215 -20.9214
    -4.8923  -4.4591  -1.6217  -1.2233  -1.0231  -0.8310  -0.6526  -0.4613
     0.6070   0.9663   1.2027   1.2784   5.1101   6.0384   6.2437   6.4871
     6.6209   6.9691   7.3762

          k = 0.1667 0.0000-0.0579 ( 16406 PWs)   bands (ev):

   -49.1169 -49.1163 -49.1158 -49.1153 -48.9998 -48.9996 -21.0682 -21.0643
   -21.0587 -21.0561 -21.0527 -21.0512 -21.0480 -21.0478 -21.0359 -21.0341
   -21.0316 -21.0290 -20.9344 -20.9306 -20.9301 -20.9290 -20.9222 -20.9201
    -5.0651  -4.1938  -1.7506  -1.3360  -1.0498  -0.7407  -0.4737  -0.4552
     0.3352   0.9969   1.1442   1.4884   4.8330   5.7258   6.1508   6.5682
     7.0458   7.4118   7.6023

          k = 0.1667 0.1607 0.1157 ( 16391 PWs)   bands (ev):

   -49.1168 -49.1162 -49.1158 -49.1154 -48.9998 -48.9996 -21.0696 -21.0621
   -21.0588 -21.0572 -21.0551 -21.0503 -21.0460 -21.0446 -21.0373 -21.0364
   -21.0319 -21.0292 -20.9325 -20.9308 -20.9299 -20.9280 -20.9239 -20.9208
    -4.9456  -4.2323  -1.7503  -1.2786  -1.1032  -0.9764  -0.6607  -0.4955
     0.5862   0.8583   1.2017   1.4804   5.1725   5.8501   6.1507   6.5739
     6.8803   7.2205   7.6390

          k = 0.1667 0.1607 0.2894 ( 16392 PWs)   bands (ev):

   -49.1166 -49.1164 -49.1157 -49.1156 -48.9997 -48.9997 -21.0659 -21.0633
   -21.0588 -21.0564 -21.0535 -21.0507 -21.0482 -21.0461 -21.0374 -21.0360
   -21.0321 -21.0302 -20.9315 -20.9311 -20.9301 -20.9277 -20.9238 -20.9216
    -4.7301  -4.5135  -1.6638  -1.4315  -1.0678  -0.9073  -0.6589  -0.4724
     0.7551   0.9404   1.0943   1.3712   5.6001   5.7553   6.1301   6.3883
     6.6740   7.0512   7.7503

          k = 0.1667 0.1607-0.2316 ( 16394 PWs)   bands (ev):

   -49.1167 -49.1163 -49.1157 -49.1155 -48.9998 -48.9996 -21.0674 -21.0614
   -21.0585 -21.0551 -21.0544 -21.0525 -21.0495 -21.0461 -21.0369 -21.0343
   -21.0316 -21.0308 -20.9327 -20.9303 -20.9298 -20.9290 -20.9222 -20.9218
    -4.8132  -4.4155  -1.6872  -1.3416  -1.1415  -0.8262  -0.8041  -0.4423
     0.8086   1.0187   1.1348   1.1930   5.3643   6.0630   6.2194   6.3529
     6.7159   7.1218   7.4042

          k = 0.1667 0.1607-0.0579 ( 16393 PWs)   bands (ev):

   -49.1168 -49.1162 -49.1158 -49.1154 -48.9998 -48.9996 -21.0701 -21.0615
   -21.0588 -21.0576 -21.0539 -21.0504 -21.0487 -21.0448 -21.0366 -21.0350
   -21.0316 -21.0294 -20.9333 -20.9306 -20.9298 -20.9288 -20.9229 -20.9206
    -4.9767  -4.1857  -1.6953  -1.2951  -1.2588  -0.8845  -0.6100  -0.5522
     0.6179   0.9074   1.1778   1.4044   5.1722   5.8308   6.0613   6.8305
     6.9028   7.1825   7.7703

          k = 0.1667 0.3214 0.1157 ( 16377 PWs)   bands (ev):

   -49.1165 -49.1161 -49.1160 -49.1156 -48.9998 -48.9997 -21.0699 -21.0644
   -21.0575 -21.0563 -21.0552 -21.0512 -21.0453 -21.0430 -21.0372 -21.0367
   -21.0326 -21.0305 -20.9319 -20.9303 -20.9293 -20.9286 -20.9236 -20.9215
    -4.7119  -4.2496  -1.8596  -1.4511  -1.2815  -0.9650  -0.7117  -0.7023
     0.7249   0.8452   1.2104   1.3662   5.5924   5.9515   6.3226   6.6606
     7.1657   7.3702   7.8176

          k = 0.1667 0.3214 0.2894 ( 16380 PWs)   bands (ev):

   -49.1164 -49.1163 -49.1158 -49.1157 -48.9997 -48.9997 -21.0654 -21.0629
   -21.0587 -21.0558 -21.0541 -21.0513 -21.0482 -21.0466 -21.0386 -21.0350
   -21.0335 -21.0305 -20.9311 -20.9300 -20.9294 -20.9285 -20.9236 -20.9223
    -4.5482  -4.4022  -1.9851  -1.8375  -1.0231  -0.8926  -0.6365  -0.5037
     0.8345   0.8661   1.1578   1.2841   5.6028   5.6830   6.5145   6.8531
     7.0783   7.1936   7.8115

          k = 0.1667 0.3214-0.2316 ( 16390 PWs)   bands (ev):

   -49.1165 -49.1162 -49.1159 -49.1157 -48.9997 -48.9997 -21.0669 -21.0627
   -21.0569 -21.0550 -21.0546 -21.0523 -21.0494 -21.0465 -21.0382 -21.0340
   -21.0329 -21.0312 -20.9307 -20.9298 -20.9292 -20.9287 -20.9234 -20.9230
    -4.6092  -4.3442  -1.9724  -1.7508  -1.1125  -0.7871  -0.7211  -0.5678
     0.9459   0.9778   1.0774   1.1202   5.6212   5.9843   6.4000   6.7317
     6.8798   7.4714   7.5576

          k = 0.1667 0.3214-0.0579 ( 16374 PWs)   bands (ev):

   -49.1166 -49.1161 -49.1160 -49.1156 -48.9998 -48.9997 -21.0705 -21.0648
   -21.0574 -21.0561 -21.0536 -21.0517 -21.0472 -21.0431 -21.0373 -21.0350
   -21.0317 -21.0315 -20.9318 -20.9297 -20.9295 -20.9286 -20.9238 -20.9219
    -4.7367  -4.2291  -1.7513  -1.3938  -1.3259  -1.0653  -0.7948  -0.6654
     0.7688   0.9372   1.1654   1.2465   5.8342   6.0271   6.1601   6.7798
     6.9168   7.2841   7.5767

          k = 0.1667-0.4821 0.1157 ( 16376 PWs)   bands (ev):

   -49.1162 -49.1162 -49.1159 -49.1159 -48.9997 -48.9997 -21.0679 -21.0679
   -21.0563 -21.0563 -21.0538 -21.0538 -21.0437 -21.0437 -21.0353 -21.0353
   -21.0333 -21.0333 -20.9313 -20.9313 -20.9287 -20.9287 -20.9225 -20.9225
    -4.4260  -4.4260  -1.8237  -1.8237  -1.0160  -1.0160  -0.7904  -0.7904
     0.7702   0.7702   1.2750   1.2750   5.7665   5.7665   6.8095   6.8095
     7.2097   7.2097   8.3363

          k = 0.1667-0.4821 0.2894 ( 16402 PWs)   bands (ev):

   -49.1161 -49.1161 -49.1160 -49.1160 -48.9997 -48.9997 -21.0640 -21.0640
   -21.0570 -21.0570 -21.0532 -21.0532 -21.0476 -21.0476 -21.0364 -21.0364
   -21.0324 -21.0324 -20.9305 -20.9305 -20.9288 -20.9288 -20.9229 -20.9229
    -4.3894  -4.3894  -2.1162  -2.1162  -0.8507  -0.8507  -0.6295  -0.6295
     0.8351   0.8351   1.2020   1.2020   5.5686   5.5686   6.9771   6.9771
     7.4201   7.4201   7.9567

          k = 0.1667-0.4821-0.2316 ( 16390 PWs)   bands (ev):

   -49.1162 -49.1162 -49.1159 -49.1159 -48.9997 -48.9997 -21.0649 -21.0649
   -21.0565 -21.0565 -21.0522 -21.0522 -21.0485 -21.0485 -21.0364 -21.0364
   -21.0322 -21.0322 -20.9298 -20.9298 -20.9287 -20.9287 -20.9237 -20.9237
    -4.3989  -4.3989  -2.0571  -2.0571  -0.8937  -0.8937  -0.6430  -0.6430
     0.8551   0.8551   1.1576   1.1576   5.7584   5.7584   6.6515   6.6515
     7.4012   7.4012   8.1190

          k = 0.1667-0.4821-0.0579 ( 16380 PWs)   bands (ev):

   -49.1163 -49.1163 -49.1158 -49.1158 -48.9997 -48.9997 -21.0685 -21.0685
   -21.0560 -21.0560 -21.0534 -21.0534 -21.0440 -21.0440 -21.0354 -21.0354
   -21.0330 -21.0330 -20.9307 -20.9307 -20.9285 -20.9285 -20.9232 -20.9232
    -4.4348  -4.4348  -1.7177  -1.7177  -1.1027  -1.1027  -0.8195  -0.8195
     0.8266   0.8266   1.2055   1.2055   6.0953   6.0953   6.4014   6.4014
     7.1793   7.1793   8.3208

          k = 0.3333 0.0000 0.2315 ( 16398 PWs)   bands (ev):

   -49.1165 -49.1163 -49.1158 -49.1156 -48.9997 -48.9997 -21.0659 -21.0641
   -21.0581 -21.0534 -21.0527 -21.0512 -21.0477 -21.0471 -21.0394 -21.0365
   -21.0327 -21.0326 -20.9328 -20.9294 -20.9292 -20.9286 -20.9233 -20.9207
    -4.6604  -4.3397  -2.0815  -1.7452  -0.8705  -0.8234  -0.5380  -0.4308
     0.6162   0.9078   1.0675   1.3980   5.2453   5.3571   6.6539   6.9928
     7.1545   7.3168   7.4583

          k = 0.3333 0.0000 0.4051 ( 16406 PWs)   bands (ev):

   -49.1165 -49.1163 -49.1158 -49.1156 -48.9998 -48.9997 -21.0664 -21.0622
   -21.0575 -21.0535 -21.0517 -21.0514 -21.0501 -21.0482 -21.0390 -21.0357
   -21.0339 -21.0317 -20.9336 -20.9300 -20.9296 -20.9290 -20.9215 -20.9206
    -4.5725  -4.4332  -2.0067  -1.9146  -0.8700  -0.6211  -0.6190  -0.4486
     0.8029   0.9016   0.9955   1.2969   5.1199   5.5413   6.5201   6.7947
     6.8416   7.4036   7.5162

          k = 0.3333 0.0000-0.1159 ( 16420 PWs)   bands (ev):

   -49.1166 -49.1161 -49.1159 -49.1155 -48.9998 -48.9996 -21.0663 -21.0631
   -21.0579 -21.0572 -21.0532 -21.0506 -21.0488 -21.0471 -21.0367 -21.0361
   -21.0333 -21.0311 -20.9323 -20.9307 -20.9295 -20.9288 -20.9219 -20.9210
    -4.7571  -4.2488  -1.9092  -1.5110  -1.3076  -0.7867  -0.5689  -0.5358
     0.6929   0.9869   1.1358   1.2103   5.2383   6.1941   6.2868   6.5552
     6.6259   7.1306   7.8281

          k = 0.3333 0.0000 0.0578 ( 16403 PWs)   bands (ev):

   -49.1166 -49.1162 -49.1159 -49.1155 -48.9998 -48.9997 -21.0657 -21.0648
   -21.0603 -21.0544 -21.0527 -21.0516 -21.0491 -21.0450 -21.0370 -21.0362
   -21.0331 -21.0315 -20.9315 -20.9301 -20.9287 -20.9287 -20.9238 -20.9211
    -4.7912  -4.2106  -1.8786  -1.3798  -1.3348  -0.9510  -0.6595  -0.4221
     0.5701   0.9725   1.0955   1.3810   5.3420   5.8394   6.2750   6.7035
     7.1483   7.3988   7.4880

          k = 0.3333 0.1607 0.2315 ( 16395 PWs)   bands (ev):

   -49.1164 -49.1163 -49.1158 -49.1157 -48.9997 -48.9997 -21.0677 -21.0632
   -21.0589 -21.0561 -21.0540 -21.0511 -21.0477 -21.0458 -21.0386 -21.0361
   -21.0319 -21.0307 -20.9330 -20.9289 -20.9288 -20.9286 -20.9237 -20.9209
    -4.5912  -4.2993  -1.9942  -1.6990  -1.1681  -0.8143  -0.6940  -0.5739
     0.6750   0.8338   1.1746   1.3540   5.4464   5.6725   6.6243   6.8055
     6.9698   7.2451   7.6693

          k = 0.3333 0.1607 0.4051 ( 16392 PWs)   bands (ev):

   -49.1164 -49.1162 -49.1158 -49.1157 -48.9998 -48.9997 -21.0668 -21.0628
   -21.0579 -21.0553 -21.0531 -21.0516 -21.0500 -21.0483 -21.0377 -21.0354
   -21.0324 -21.0306 -20.9331 -20.9298 -20.9290 -20.9286 -20.9222 -20.9214
    -4.5097  -4.3831  -1.9314  -1.8556  -1.0775  -0.9302  -0.6236  -0.5325
     0.8125   0.9575   1.0735   1.2163   5.4991   5.7068   6.3661   6.7234
     7.0591   7.2537   7.8636

          k = 0.3333 0.1607-0.1159 ( 16390 PWs)   bands (ev):

   -49.1166 -49.1161 -49.1159 -49.1156 -48.9998 -48.9997 -21.0696 -21.0630
   -21.0584 -21.0565 -21.0544 -21.0510 -21.0500 -21.0448 -21.0366 -21.0352
   -21.0322 -21.0301 -20.9331 -20.9301 -20.9291 -20.9283 -20.9228 -20.9208
    -4.6815  -4.2199  -1.8250  -1.4944  -1.3405  -0.9599  -0.7220  -0.6648
     0.8425   0.8656   1.0921   1.1803   5.6246   6.0996   6.2875   6.5106
     7.0965   7.3149   7.6943

          k = 0.3333 0.1607 0.0578 ( 16405 PWs)   bands (ev):

   -49.1166 -49.1162 -49.1159 -49.1156 -48.9998 -48.9997 -21.0700 -21.0643
   -21.0594 -21.0559 -21.0543 -21.0519 -21.0467 -21.0443 -21.0371 -21.0356
   -21.0320 -21.0301 -20.9326 -20.9300 -20.9290 -20.9283 -20.9234 -20.9210
    -4.7137  -4.1868  -1.7972  -1.3750  -1.3286  -1.0904  -0.7761  -0.6294
     0.6689   0.8025   1.1826   1.3025   5.6349   5.9136   6.4047   6.7046
     7.0179   7.3171   7.7112

          k = 0.3333 0.3214 0.2315 ( 16384 PWs)   bands (ev):

   -49.1163 -49.1161 -49.1159 -49.1158 -48.9997 -48.9997 -21.0688 -21.0657
   -21.0599 -21.0580 -21.0553 -21.0530 -21.0477 -21.0459 -21.0346 -21.0338
   -21.0307 -21.0294 -20.9331 -20.9300 -20.9279 -20.9278 -20.9235 -20.9216
    -4.4185  -4.2285  -1.7910  -1.6742  -1.5190  -1.1325  -0.8101  -0.7690
     0.6638   0.7475   1.2242   1.3164   5.9691   6.1719   6.3796   6.8789
     7.2447   7.5244   7.7486

          k = 0.3333 0.3214 0.4051 ( 16387 PWs)   bands (ev):

   -49.1163 -49.1161 -49.1159 -49.1158 -48.9998 -48.9997 -21.0673 -21.0651
   -21.0581 -21.0574 -21.0552 -21.0521 -21.0508 -21.0492 -21.0349 -21.0327
   -21.0306 -21.0298 -20.9319 -20.9295 -20.9282 -20.9277 -20.9234 -20.9229
    -4.3605  -4.2783  -1.7905  -1.7745  -1.4449  -1.2319  -0.7820  -0.7278
     0.7216   1.0024   1.0687   1.2380   6.0622   6.1243   6.4848   6.8658
     7.1716   7.3903   7.6941

          k = 0.3333 0.3214-0.1159 ( 16373 PWs)   bands (ev):

   -49.1164 -49.1161 -49.1159 -49.1157 -48.9998 -48.9997 -21.0715 -21.0675
   -21.0590 -21.0578 -21.0546 -21.0534 -21.0474 -21.0435 -21.0350 -21.0324
   -21.0305 -21.0298 -20.9338 -20.9310 -20.9278 -20.9275 -20.9231 -20.9212
    -4.4857  -4.1877  -1.6594  -1.5733  -1.5543  -0.9661  -0.9458  -0.8567
     0.5811   0.6885   1.1698   1.2235   6.0306   6.2820   6.6154   6.7949
     7.2426   7.6288   7.8878

          k = 0.3333 0.3214 0.0578 ( 16386 PWs)   bands (ev):

   -49.1164 -49.1161 -49.1159 -49.1157 -48.9998 -48.9997 -21.0724 -21.0687
   -21.0593 -21.0576 -21.0553 -21.0540 -21.0441 -21.0422 -21.0352 -21.0331
   -21.0305 -21.0294 -20.9342 -20.9323 -20.9278 -20.9275 -20.9223 -20.9209
    -4.5106  -4.1713  -1.6886  -1.5073  -1.4267  -1.0971  -0.9050  -0.8734
     0.4521   0.6492   1.1963   1.2843   6.0183   6.2037   6.4153   7.0676
     7.2957   7.6347   8.1012

          k = 0.3333-0.4821 0.2315 ( 16402 PWs)   bands (ev):

   -49.1161 -49.1161 -49.1159 -49.1159 -48.9998 -48.9998 -21.0681 -21.0681
   -21.0597 -21.0597 -21.0548 -21.0548 -21.0470 -21.0470 -21.0316 -21.0316
   -21.0305 -21.0305 -20.9320 -20.9320 -20.9275 -20.9275 -20.9225 -20.9225
    -4.2549  -4.2549  -1.7868  -1.7868  -1.3318  -1.3318  -0.9059  -0.9059
     0.6816   0.6816   1.2549   1.2549   6.1926   6.1926   6.6994   6.6994
     7.6383   7.6383   8.1559

          k = 0.3333-0.4821 0.4051 ( 16408 PWs)   bands (ev):

   -49.1161 -49.1161 -49.1160 -49.1160 -48.9998 -48.9998 -21.0670 -21.0670
   -21.0579 -21.0579 -21.0549 -21.0549 -21.0501 -21.0501 -21.0319 -21.0319
   -21.0301 -21.0301 -20.9303 -20.9303 -20.9275 -20.9275 -20.9238 -20.9238
    -4.2466  -4.2466  -1.8359  -1.8359  -1.3201  -1.3201  -0.9110  -0.9110
     0.7906   0.7906   1.2031   1.2031   6.1688   6.1688   6.9010   6.9010
     7.3839   7.3839   8.0742

          k = 0.3333-0.4821-0.1159 ( 16366 PWs)   bands (ev):

   -49.1162 -49.1162 -49.1158 -49.1158 -48.9998 -48.9998 -21.0707 -21.0707
   -21.0591 -21.0591 -21.0550 -21.0550 -21.0443 -21.0443 -21.0319 -21.0319
   -21.0303 -21.0303 -20.9330 -20.9330 -20.9271 -20.9271 -20.9222 -20.9222
    -4.2744  -4.2744  -1.7470  -1.7470  -1.2420  -1.2420  -0.8890  -0.8890
     0.4809   0.4809   1.2332   1.2332   6.1302   6.1302   7.1119   7.1119
     7.4952   7.4952   8.3689

          k = 0.3333-0.4821 0.0578 ( 16368 PWs)   bands (ev):

   -49.1162 -49.1162 -49.1158 -49.1158 -48.9998 -48.9998 -21.0718 -21.0718
   -21.0592 -21.0592 -21.0555 -21.0555 -21.0422 -21.0422 -21.0314 -21.0314
   -21.0308 -21.0308 -20.9342 -20.9342 -20.9272 -20.9272 -20.9213 -20.9213
    -4.2823  -4.2823  -1.7147  -1.7147  -1.1666  -1.1666  -0.9606  -0.9606
     0.4173   0.4173   1.2459   1.2459   6.0895   6.0895   7.0352   7.0352
     7.7906   7.7906   8.3845

          k =-0.5000 0.0000-0.3472 ( 16388 PWs)   bands (ev):

   -49.1163 -49.1161 -49.1160 -49.1158 -48.9998 -48.9997 -21.0665 -21.0626
   -21.0558 -21.0522 -21.0514 -21.0501 -21.0493 -21.0490 -21.0428 -21.0357
   -21.0354 -21.0323 -20.9344 -20.9304 -20.9285 -20.9281 -20.9215 -20.9203
    -4.3989  -4.3721  -2.2723  -2.2099  -0.8044  -0.5453  -0.5134  -0.3919
     0.6446   0.8946   1.0078   1.2991   5.0764   5.2109   6.5691   6.6343
     7.1818   7.5513   8.0425

          k =-0.5000 0.0000-0.1735 ( 16398 PWs)   bands (ev):

   -49.1163 -49.1162 -49.1158 -49.1158 -48.9997 -48.9997 -21.0662 -21.0618
   -21.0599 -21.0542 -21.0521 -21.0505 -21.0485 -21.0477 -21.0392 -21.0362
   -21.0344 -21.0326 -20.9331 -20.9300 -20.9284 -20.9282 -20.9222 -20.9211
    -4.4243  -4.4062  -2.0795  -2.0172  -0.9366  -0.7619  -0.6109  -0.4704
     0.7269   0.9677   0.9754   1.2608   5.2915   5.4668   6.7198   7.0017
     7.0482   7.2197   7.4130

          k =-0.5000 0.0000-0.6945 ( 16416 PWs)   bands (ev):

   -49.1163 -49.1163 -49.1157 -49.1157 -48.9997 -48.9997 -21.0643 -21.0643
   -21.0587 -21.0587 -21.0520 -21.0520 -21.0466 -21.0466 -21.0366 -21.0366
   -21.0334 -21.0334 -20.9307 -20.9307 -20.9282 -20.9282 -20.9226 -20.9226
    -4.4432  -4.4432  -1.7478  -1.7478  -1.1770  -1.1770  -0.5760  -0.5760
     0.8646   0.8646   1.1368   1.1368   5.8746   5.8746   6.2663   6.2663
     7.0880   7.0880   7.9480

          k =-0.5000 0.1607-0.3472 ( 16400 PWs)   bands (ev):

   -49.1163 -49.1161 -49.1160 -49.1158 -48.9998 -48.9997 -21.0665 -21.0639
   -21.0571 -21.0560 -21.0524 -21.0506 -21.0501 -21.0499 -21.0383 -21.0339
   -21.0338 -21.0312 -20.9339 -20.9302 -20.9279 -20.9278 -20.9222 -20.9211
    -4.3476  -4.3233  -2.1730  -2.1166  -0.9473  -0.7356  -0.6965  -0.6128
     0.6542   0.9109   1.1574   1.2354   5.3859   5.4787   6.4090   6.9450
     7.3303   7.7751   7.8131

          k =-0.5000 0.1607-0.1735 ( 16399 PWs)   bands (ev):

   -49.1163 -49.1162 -49.1158 -49.1158 -48.9998 -48.9997 -21.0685 -21.0635
   -21.0595 -21.0560 -21.0545 -21.0520 -21.0479 -21.0455 -21.0373 -21.0346
   -21.0327 -21.0315 -20.9337 -20.9300 -20.9279 -20.9277 -20.9231 -20.9208
    -4.3709  -4.3543  -2.0016  -1.9400  -1.0381  -0.8603  -0.7664  -0.6683
     0.6615   0.8411   1.1197   1.2466   5.5841   5.7387   6.5627   6.7225
     7.2645   7.3487   7.8954

          k =-0.5000 0.1607-0.6945 ( 16394 PWs)   bands (ev):

   -49.1163 -49.1163 -49.1158 -49.1158 -48.9997 -48.9997 -21.0679 -21.0679
   -21.0575 -21.0575 -21.0538 -21.0538 -21.0452 -21.0452 -21.0353 -21.0353
   -21.0320 -21.0320 -20.9320 -20.9320 -20.9277 -20.9277 -20.9220 -20.9220
    -4.3883  -4.3883  -1.7207  -1.7207  -1.1423  -1.1423  -0.7884  -0.7884
     0.7609   0.7609   1.1478   1.1478   6.0351   6.0351   6.3554   6.3554
     7.2721   7.2721   8.1855

          k =-0.5000 0.3214-0.3472 ( 16406 PWs)   bands (ev):

   -49.1162 -49.1161 -49.1160 -49.1159 -48.9998 -48.9997 -21.0674 -21.0667
   -21.0588 -21.0583 -21.0544 -21.0530 -21.0510 -21.0509 -21.0327 -21.0309
   -21.0307 -21.0297 -20.9325 -20.9299 -20.9273 -20.9268 -20.9234 -20.9229
    -4.2324  -4.2165  -1.8921  -1.8517  -1.2896  -1.2050  -1.0048  -0.9791
     0.6712   1.0368   1.0412   1.2914   5.8573   6.2444   6.4461   7.0182
     7.5289   7.7786   7.7912

          k =-0.5000 0.3214-0.1735 ( 16373 PWs)   bands (ev):

   -49.1162 -49.1162 -49.1159 -49.1158 -48.9998 -48.9997 -21.0706 -21.0683
   -21.0600 -21.0593 -21.0556 -21.0539 -21.0472 -21.0446 -21.0327 -21.0316
   -21.0301 -21.0297 -20.9344 -20.9314 -20.9270 -20.9268 -20.9231 -20.9211
    -4.2506  -4.2396  -1.8341  -1.7674  -1.3157  -1.1969  -0.9224  -0.8873
     0.4903   0.6221   1.2336   1.2487   6.0408   6.1236   6.6040   7.0633
     7.3434   7.9389   8.3871

          k =-0.5000 0.3214-0.6945 ( 16394 PWs)   bands (ev):

   -49.1163 -49.1163 -49.1158 -49.1158 -48.9998 -48.9998 -21.0719 -21.0719
   -21.0594 -21.0594 -21.0555 -21.0555 -21.0426 -21.0426 -21.0322 -21.0322
   -21.0298 -21.0298 -20.9344 -20.9344 -20.9268 -20.9268 -20.9211 -20.9211
    -4.2649  -4.2649  -1.7655  -1.7655  -1.0638  -1.0638  -0.9917  -0.9917
     0.3806   0.3806   1.2033   1.2033   6.0770   6.0770   6.9785   6.9785
     7.8372   7.8372   8.4684

          k =-0.5000-0.4821-0.3472 ( 16420 PWs)   bands (ev):

   -49.1161 -49.1161 -49.1160 -49.1160 -48.9998 -48.9998 -21.0683 -21.0683
   -21.0578 -21.0578 -21.0559 -21.0559 -21.0512 -21.0512 -21.0300 -21.0300
   -21.0293 -21.0293 -20.9307 -20.9307 -20.9269 -20.9269 -20.9238 -20.9238
    -4.1620  -4.1620  -1.5450  -1.5450  -1.4596  -1.4596  -1.3298  -1.3298
     0.8189   0.8189   1.2100   1.2100   6.3485   6.3485   6.5675   6.5675
     7.9644   7.9645   8.3384

          k =-0.5000-0.4821-0.1735 ( 16384 PWs)   bands (ev):

   -49.1162 -49.1162 -49.1159 -49.1159 -48.9998 -48.9998 -21.0708 -21.0708
   -21.0607 -21.0607 -21.0554 -21.0554 -21.0456 -21.0456 -21.0300 -21.0300
   -21.0293 -21.0293 -20.9335 -20.9335 -20.9265 -20.9265 -20.9220 -20.9220
    -4.1782  -4.1782  -1.7661  -1.7661  -1.2143  -1.2143  -1.1374  -1.1374
     0.4760   0.4760   1.2436   1.2436   6.1216   6.1216   7.1113   7.1113
     8.0945   8.0946   8.4823

          k =-0.5000-0.4821-0.6945 ( 16352 PWs)   bands (ev):

   -49.1162 -49.1162 -49.1158 -49.1158 -48.9998 -48.9998 -21.0733 -21.0733
   -21.0606 -21.0606 -21.0563 -21.0563 -21.0416 -21.0416 -21.0301 -21.0301
   -21.0293 -21.0293 -20.9356 -20.9356 -20.9264 -20.9264 -20.9207 -20.9207
    -4.1941  -4.1941  -1.8625  -1.8625  -1.0107  -1.0107  -0.9725  -0.9725
     0.1509   0.1509   1.2047   1.2047   6.0660   6.0660   7.5125   7.5125
     8.2630   8.2630   8.4829

     the Fermi energy is     3.6357 ev

!    total energy              =    -665.33746617 Ry
     estimated scf accuracy    <          3.0E-09 Ry
     smearing contrib. (-TS)   =       0.00000000 Ry
     internal energy E=F+TS    =    -665.33746617 Ry

     The total energy is F=E-TS. E is the sum of the following terms:
     one-electron contribution =    -481.97996712 Ry
     hartree contribution      =     254.78207873 Ry
     xc contribution           =    -100.22940228 Ry
     ewald contribution        =    -268.57364766 Ry
     one-center paw contrib.   =     -69.33652785 Ry

     convergence has been achieved in   9 iterations

     Forces acting on atoms (cartesian axes, Ry/au):

     atom    1 type  1   force =     0.00000000    0.00000000    0.00000000
     atom    2 type  1   force =     0.00000000    0.00000000    0.00000000
     atom    3 type  3   force =     0.00000000    0.00000000    0.00000000
     atom    4 type  3   force =     0.00000000    0.00000000    0.00000000
     atom    5 type  3   force =    -0.00045243    0.00044512    0.00033193
     atom    6 type  3   force =     0.00045243   -0.00044512   -0.00033193
     atom    7 type  3   force =     0.00045243    0.00044512   -0.00033193
     atom    8 type  3   force =    -0.00045243   -0.00044512    0.00033193
     atom    9 type  2   force =    -0.00090887    0.00190195    0.00069404
     atom   10 type  2   force =     0.00090887   -0.00190195   -0.00069404
     atom   11 type  2   force =     0.00090887    0.00190195   -0.00069404
     atom   12 type  2   force =    -0.00090887   -0.00190195    0.00069404
     atom   13 type  2   force =     0.00194811   -0.00124866   -0.00040327
     atom   14 type  2   force =    -0.00194811    0.00124866    0.00040327
     atom   15 type  2   force =    -0.00194811   -0.00124866    0.00040327
     atom   16 type  2   force =     0.00194811    0.00124866   -0.00040327
     atom   17 type  2   force =    -0.00088328   -0.00008424   -0.00228628
     atom   18 type  2   force =     0.00088328    0.00008424    0.00228628
     atom   19 type  2   force =     0.00088328   -0.00008424    0.00228628
     atom   20 type  2   force =    -0.00088328    0.00008424   -0.00228628

     Total force =     0.008239     Total SCF correction =     0.000021


     Computing stress (Cartesian axis) and pressure

          total   stress  (Ry/bohr**3)                   (kbar)     P=       14.99
   0.00010178   0.00000000   0.00000018           14.97        0.00        0.03
   0.00000000   0.00010085   0.00000000            0.00       14.84        0.00
   0.00000018   0.00000000   0.00010303            0.03        0.00       15.16


     BFGS Geometry Optimization
     Energy error            =      0.0E+00 Ry
     Gradient error          =      2.3E-03 Ry/Bohr

     number of scf cycles    =   1
     number of bfgs steps    =   0

     energy             new  =    -665.3374661710 Ry

     new trust radius        =       0.0024524227 bohr
     new conv_thr            =       0.0000000100 Ry


ATOMIC_POSITIONS (crystal)
Al            0.5000000000        0.0000000000        0.0000000000
Al            0.5000000000        0.5000000000        0.5000000000
Na           -0.0000000000        0.0000000000        0.5000000000
Na            0.0000000000        0.5000000000        0.0000000000
Na            0.2576178124        0.9527629032        0.2464930516
Na            0.7423821876        0.0472370968        0.7535069484
Na            0.7423821876        0.4527629032        0.2535069484
Na            0.2576178124        0.5472370968        0.7464930516
H             0.4016473188        0.7674233211        0.5630281993
H             0.5983526812        0.2325766789        0.4369718007
H             0.5983526812        0.2674233211        0.9369718007
H             0.4016473188        0.7325766789        0.0630281993
H             0.7286867575        0.8301596470        0.9565319939
H             0.2713132425        0.1698403530        0.0434680061
H             0.2713132425        0.3301596470        0.5434680061
H             0.7286867575        0.6698403530        0.4565319939
H             0.1835029913        0.9522918800        0.7831012227
H             0.8164970087        0.0477081200        0.2168987773
H             0.8164970087        0.4522918800        0.7168987773
H             0.1835029913        0.5477081200        0.2831012227



     Writing config-only to output data dir temp/na3alh6.save/
     NEW-OLD atomic charge density approx. for the potential

     total cpu time spent up to now is       12.5 secs

     Self-consistent Calculation

     iteration #  1     ecut=    75.00 Ry     beta= 0.70
     Davidson diagonalization with overlap
     ethr =  1.00E-06,  avg # of iterations =  2.0

     Threshold (ethr) on eigenvalues was too large:
     Diagonalizing with lowered threshold

     Davidson diagonalization with overlap
     ethr =  9.19E-09,  avg # of iterations =  2.0

     total cpu time spent up to now is       14.3 secs

     total energy              =    -665.33752574 Ry
     estimated scf accuracy    <       0.00000751 Ry

     iteration #  2     ecut=    75.00 Ry     beta= 0.70
     Davidson diagonalization with overlap
     ethr =  1.04E-08,  avg # of iterations =  2.0

     total cpu time spent up to now is       15.2 secs

     total energy              =    -665.33752758 Ry
     estimated scf accuracy    <       0.00000104 Ry

     iteration #  3     ecut=    75.00 Ry     beta= 0.70
     Davidson diagonalization with overlap
     ethr =  1.45E-09,  avg # of iterations =  2.0

     total cpu time spent up to now is       16.1 secs

     total energy              =    -665.33752777 Ry
     estimated scf accuracy    <       0.00000001 Ry

     iteration #  4     ecut=    75.00 Ry     beta= 0.70
     Davidson diagonalization with overlap
     ethr =  1.88E-11,  avg # of iterations =  3.7

     total cpu time spent up to now is       17.2 secs

     End of self-consistent calculation

          k = 0.0000 0.0000 0.0000 ( 16357 PWs)   bands (ev):

   -49.1157 -49.1150 -49.1144 -49.1140 -48.9970 -48.9967 -21.0678 -21.0628
   -21.0592 -21.0533 -21.0507 -21.0499 -21.0472 -21.0460 -21.0352 -21.0312
   -21.0296 -21.0268 -20.9334 -20.9283 -20.9275 -20.9258 -20.9196 -20.9172
    -5.1771  -4.1842  -1.8577  -1.1080  -0.9963  -0.4500  -0.4130  -0.3942
     0.0855   0.8966   1.1934   1.5862   4.5256   5.4549   6.1365   6.8567
     7.0384   7.4195   7.7846

          k = 0.0000 0.0000 0.1737 ( 16402 PWs)   bands (ev):

   -49.1156 -49.1151 -49.1143 -49.1140 -48.9969 -48.9968 -21.0666 -21.0620
   -21.0588 -21.0538 -21.0524 -21.0509 -21.0470 -21.0443 -21.0348 -21.0312
   -21.0304 -21.0276 -20.9323 -20.9287 -20.9268 -20.9256 -20.9200 -20.9183
    -5.0676  -4.3859  -1.6304  -1.0602  -0.9278  -0.5908  -0.5736  -0.5196
     0.2961   1.0064   1.0907   1.4875   4.8820   5.6264   6.1784   6.6063
     6.7444   7.3560   7.5697

          k = 0.0000 0.0000-0.3473 ( 16392 PWs)   bands (ev):

   -49.1154 -49.1154 -49.1142 -49.1142 -48.9969 -48.9969 -21.0632 -21.0632
   -21.0577 -21.0577 -21.0508 -21.0508 -21.0457 -21.0457 -21.0329 -21.0329
   -21.0296 -21.0296 -20.9301 -20.9301 -20.9257 -20.9257 -20.9200 -20.9200
    -4.7674  -4.7674  -1.1815  -1.1815  -0.7648  -0.7648  -0.7420  -0.7420
     0.7384   0.7384   1.2512   1.2512   5.6966   5.6966   6.0776   6.0776
     6.8344   6.8344   7.4183

          k = 0.0000 0.1607 0.0000 ( 16343 PWs)   bands (ev):

   -49.1156 -49.1149 -49.1145 -49.1140 -48.9970 -48.9967 -21.0679 -21.0617
   -21.0574 -21.0564 -21.0509 -21.0502 -21.0460 -21.0436 -21.0357 -21.0322
   -21.0305 -21.0284 -20.9318 -20.9278 -20.9272 -20.9261 -20.9201 -20.9180
    -5.0849  -4.1841  -1.7742  -1.4010  -0.9424  -0.7225  -0.5612  -0.4116
     0.4077   0.9155   1.2014   1.5298   4.8515   5.5947   6.0717   6.7330
     7.0805   7.4062   7.7356

          k = 0.0000 0.1607 0.1737 ( 16375 PWs)   bands (ev):

   -49.1155 -49.1150 -49.1144 -49.1141 -48.9969 -48.9968 -21.0664 -21.0609
   -21.0576 -21.0545 -21.0531 -21.0506 -21.0466 -21.0434 -21.0354 -21.0320
   -21.0316 -21.0289 -20.9310 -20.9282 -20.9268 -20.9257 -20.9205 -20.9187
    -4.9807  -4.3552  -1.7447  -1.1770  -1.0271  -0.8747  -0.5073  -0.4428
     0.5219   0.9836   1.1272   1.4385   5.0544   5.7189   6.2006   6.6616
     6.8251   7.0385   7.5505

          k = 0.0000 0.1607-0.3473 ( 16422 PWs)   bands (ev):

   -49.1153 -49.1153 -49.1143 -49.1143 -48.9969 -48.9969 -21.0626 -21.0626
   -21.0569 -21.0569 -21.0508 -21.0508 -21.0460 -21.0460 -21.0339 -21.0339
   -21.0304 -21.0304 -20.9294 -20.9294 -20.9258 -20.9258 -20.9202 -20.9202
    -4.6990  -4.6990  -1.5061  -1.5061  -0.7137  -0.7137  -0.6575  -0.6575
     0.8286   0.8286   1.2217   1.2217   5.6010   5.6010   6.1976   6.1976
     6.9873   6.9873   7.5462

          k = 0.0000 0.3214 0.0000 ( 16414 PWs)   bands (ev):

   -49.1153 -49.1148 -49.1147 -49.1143 -48.9969 -48.9968 -21.0673 -21.0618
   -21.0578 -21.0535 -21.0522 -21.0493 -21.0442 -21.0418 -21.0361 -21.0350
   -21.0327 -21.0312 -20.9285 -20.9271 -20.9266 -20.9264 -20.9213 -20.9200
    -4.8316  -4.2560  -1.7482  -1.5398  -1.2704  -0.8479  -0.7836  -0.4521
     0.7426   1.0275   1.1528   1.3682   5.4924   5.7607   6.3201   6.4388
     7.3211   7.3454   7.5032

          k = 0.0000 0.3214 0.1737 ( 16378 PWs)   bands (ev):

   -49.1153 -49.1148 -49.1146 -49.1143 -48.9969 -48.9968 -21.0654 -21.0606
   -21.0569 -21.0536 -21.0525 -21.0493 -21.0456 -21.0432 -21.0374 -21.0345
   -21.0332 -21.0310 -20.9286 -20.9276 -20.9266 -20.9258 -20.9214 -20.9198
    -4.7481  -4.3341  -2.0369  -1.6498  -1.0313  -0.7460  -0.5609  -0.4792
     0.7745   0.9842   1.1342   1.3063   5.2979   5.6594   6.6354   6.7307
     6.8645   7.3235   7.5497

          k = 0.0000 0.3214-0.3473 ( 16386 PWs)   bands (ev):

   -49.1151 -49.1151 -49.1145 -49.1145 -48.9969 -48.9969 -21.0614 -21.0614
   -21.0552 -21.0552 -21.0503 -21.0503 -21.0463 -21.0463 -21.0369 -21.0369
   -21.0316 -21.0316 -20.9283 -20.9283 -20.9260 -20.9260 -20.9204 -20.9204
    -4.5401  -4.5401  -2.0117  -2.0117  -0.6515  -0.6515  -0.5181  -0.5181
     0.8854   0.8854   1.1679   1.1679   5.3476   5.3476   6.7962   6.7962
     7.1526   7.1526   7.6347

          k = 0.0000-0.4821 0.0000 ( 16388 PWs)   bands (ev):

   -49.1150 -49.1150 -49.1145 -49.1145 -48.9969 -48.9969 -21.0653 -21.0653
   -21.0544 -21.0544 -21.0502 -21.0502 -21.0426 -21.0426 -21.0359 -21.0359
   -21.0336 -21.0336 -20.9269 -20.9269 -20.9261 -20.9261 -20.9217 -20.9217
    -4.5020  -4.5020  -1.6951  -1.6951  -1.2028  -1.2028  -0.5922  -0.5922
     0.9637   0.9637   1.2085   1.2085   5.7884   5.7884   6.4682   6.4682
     7.0315   7.0315   8.1530

          k = 0.0000-0.4821 0.1737 ( 16422 PWs)   bands (ev):

   -49.1149 -49.1149 -49.1146 -49.1146 -48.9969 -48.9969 -21.0633 -21.0633
   -21.0546 -21.0546 -21.0494 -21.0494 -21.0446 -21.0446 -21.0375 -21.0375
   -21.0327 -21.0327 -20.9275 -20.9275 -20.9261 -20.9261 -20.9210 -20.9210
    -4.4741  -4.4741  -2.0415  -2.0415  -0.8026  -0.8026  -0.5637  -0.5637
     0.9057   0.9057   1.1929   1.1929   5.4647   5.4647   6.6149   6.6149
     7.5576   7.5576   8.0527

          k = 0.0000-0.4821-0.3473 ( 16396 PWs)   bands (ev):

   -49.1148 -49.1148 -49.1147 -49.1147 -48.9969 -48.9969 -21.0609 -21.0609
   -21.0543 -21.0543 -21.0497 -21.0497 -21.0461 -21.0461 -21.0391 -21.0391
   -21.0321 -21.0321 -20.9280 -20.9280 -20.9261 -20.9261 -20.9204 -20.9204
    -4.4444  -4.4444  -2.2463  -2.2463  -0.6206  -0.6206  -0.4458  -0.4458
     0.8538   0.8538   1.1570   1.1570   5.2416   5.2416   6.8930   6.8930
     7.3552   7.3552   8.1821

          k = 0.1667 0.0000 0.1157 ( 16395 PWs)   bands (ev):

   -49.1156 -49.1150 -49.1144 -49.1141 -48.9970 -48.9968 -21.0660 -21.0640
   -21.0560 -21.0558 -21.0516 -21.0509 -21.0449 -21.0448 -21.0353 -21.0338
   -21.0306 -21.0281 -20.9306 -20.9280 -20.9277 -20.9250 -20.9210 -20.9180
    -5.0299  -4.2456  -1.7735  -1.1894  -1.0468  -0.8594  -0.4532  -0.4525
     0.3517   0.9154   1.1644   1.5383   4.9240   5.6653   6.2777   6.5889
     6.9355   7.1995   7.2237

          k = 0.1667 0.0000 0.2894 ( 16379 PWs)   bands (ev):

   -49.1154 -49.1152 -49.1143 -49.1142 -48.9969 -48.9968 -21.0636 -21.0635
   -21.0567 -21.0563 -21.0517 -21.0496 -21.0465 -21.0450 -21.0345 -21.0343
   -21.0306 -21.0296 -20.9291 -20.9291 -20.9276 -20.9248 -20.9211 -20.9187
    -4.8008  -4.5655  -1.5798  -1.3169  -0.8929  -0.7993  -0.6117  -0.5854
     0.6445   0.9626   1.0358   1.4159   5.5250   5.5496   6.2583   6.3912
     6.5090   7.3276   7.5273

          k = 0.1667 0.0000-0.2316 ( 16381 PWs)   bands (ev):

   -49.1155 -49.1151 -49.1144 -49.1141 -48.9969 -48.9968 -21.0655 -21.0601
   -21.0592 -21.0539 -21.0518 -21.0500 -21.0492 -21.0452 -21.0344 -21.0324
   -21.0310 -21.0290 -20.9311 -20.9280 -20.9271 -20.9266 -20.9189 -20.9188
    -4.8898  -4.4559  -1.6212  -1.2220  -1.0219  -0.8298  -0.6514  -0.4597
     0.6050   0.9646   1.2013   1.2773   5.1092   6.0388   6.2435   6.4860
     6.6215   6.9676   7.3761

          k = 0.1667 0.0000-0.0579 ( 16406 PWs)   bands (ev):

   -49.1156 -49.1149 -49.1145 -49.1140 -48.9970 -48.9968 -21.0667 -21.0630
   -21.0574 -21.0548 -21.0514 -21.0499 -21.0465 -21.0465 -21.0347 -21.0328
   -21.0303 -21.0278 -20.9317 -20.9279 -20.9274 -20.9263 -20.9196 -20.9175
    -5.0628  -4.1900  -1.7502  -1.3355  -1.0486  -0.7391  -0.4721  -0.4537
     0.3330   0.9953   1.1426   1.4873   4.8323   5.7260   6.1504   6.5680
     7.0458   7.4128   7.5991

          k = 0.1667 0.1607 0.1157 ( 16391 PWs)   bands (ev):

   -49.1155 -49.1149 -49.1145 -49.1141 -48.9970 -48.9968 -21.0682 -21.0607
   -21.0574 -21.0558 -21.0538 -21.0490 -21.0447 -21.0433 -21.0360 -21.0351
   -21.0307 -21.0279 -20.9298 -20.9282 -20.9272 -20.9253 -20.9212 -20.9182
    -4.9431  -4.2286  -1.7498  -1.2778  -1.1026  -0.9755  -0.6592  -0.4938
     0.5846   0.8565   1.2001   1.4793   5.1719   5.8501   6.1500   6.5740
     6.8801   7.2199   7.6377

          k = 0.1667 0.1607 0.2894 ( 16392 PWs)   bands (ev):

   -49.1153 -49.1151 -49.1144 -49.1143 -48.9969 -48.9969 -21.0645 -21.0619
   -21.0575 -21.0551 -21.0522 -21.0494 -21.0469 -21.0448 -21.0361 -21.0347
   -21.0308 -21.0289 -20.9288 -20.9284 -20.9274 -20.9251 -20.9212 -20.9190
    -4.7273  -4.5104  -1.6631  -1.4307  -1.0669  -0.9061  -0.6576  -0.4705
     0.7534   0.9387   1.0928   1.3699   5.5990   5.7543   6.1300   6.3892
     6.6738   7.0505   7.7503

          k = 0.1667 0.1607-0.2316 ( 16394 PWs)   bands (ev):

   -49.1154 -49.1150 -49.1144 -49.1142 -48.9969 -48.9968 -21.0660 -21.0600
   -21.0571 -21.0538 -21.0531 -21.0512 -21.0482 -21.0448 -21.0357 -21.0330
   -21.0303 -21.0295 -20.9300 -20.9276 -20.9271 -20.9264 -20.9196 -20.9193
    -4.8106  -4.4121  -1.6869  -1.3405  -1.1406  -0.8249  -0.8030  -0.4406
     0.8069   1.0170   1.1334   1.1918   5.3632   6.0632   6.2194   6.3525
     6.7151   7.1209   7.4047

          k = 0.1667 0.1607-0.0579 ( 16393 PWs)   bands (ev):

   -49.1155 -49.1149 -49.1145 -49.1141 -48.9970 -48.9968 -21.0686 -21.0601
   -21.0574 -21.0563 -21.0526 -21.0492 -21.0474 -21.0435 -21.0353 -21.0337
   -21.0303 -21.0281 -20.9306 -20.9279 -20.9271 -20.9262 -20.9202 -20.9180
    -4.9743  -4.1818  -1.6950  -1.2944  -1.2584  -0.8831  -0.6084  -0.5507
     0.6164   0.9056   1.1762   1.4033   5.1716   5.8306   6.0611   6.8306
     6.9028   7.1819   7.7693

          k = 0.1667 0.3214 0.1157 ( 16377 PWs)   bands (ev):

   -49.1152 -49.1148 -49.1147 -49.1143 -48.9969 -48.9968 -21.0685 -21.0630
   -21.0562 -21.0550 -21.0539 -21.0499 -21.0440 -21.0417 -21.0360 -21.0354
   -21.0314 -21.0292 -20.9293 -20.9277 -20.9266 -20.9260 -20.9210 -20.9189
    -4.7090  -4.2458  -1.8598  -1.4504  -1.2806  -0.9642  -0.7103  -0.7006
     0.7231   0.8437   1.2089   1.3649   5.5921   5.9507   6.3229   6.6603
     7.1649   7.3708   7.8178

          k = 0.1667 0.3214 0.2894 ( 16380 PWs)   bands (ev):

   -49.1151 -49.1149 -49.1145 -49.1144 -48.9969 -48.9969 -21.0639 -21.0614
   -21.0574 -21.0544 -21.0528 -21.0501 -21.0469 -21.0453 -21.0373 -21.0337
   -21.0322 -21.0292 -20.9284 -20.9273 -20.9267 -20.9259 -20.9210 -20.9197
    -4.5451  -4.3987  -1.9852  -1.8374  -1.0219  -0.8913  -0.6350  -0.5018
     0.8328   0.8644   1.1562   1.2827   5.6020   5.6822   6.5143   6.8534
     7.0789   7.1927   7.8098

          k = 0.1667 0.3214-0.2316 ( 16390 PWs)   bands (ev):

   -49.1152 -49.1149 -49.1146 -49.1144 -48.9969 -48.9969 -21.0654 -21.0613
   -21.0555 -21.0536 -21.0533 -21.0509 -21.0481 -21.0452 -21.0369 -21.0327
   -21.0317 -21.0299 -20.9281 -20.9271 -20.9265 -20.9261 -20.9208 -20.9204
    -4.6062  -4.3406  -1.9727  -1.7505  -1.1117  -0.7856  -0.7196  -0.5663
     0.9443   0.9762   1.0759   1.1188   5.6201   5.9839   6.3998   6.7320
     6.8803   7.4698   7.5572

          k = 0.1667 0.3214-0.0579 ( 16374 PWs)   bands (ev):

   -49.1153 -49.1148 -49.1147 -49.1143 -48.9970 -48.9968 -21.0690 -21.0634
   -21.0561 -21.0548 -21.0523 -21.0503 -21.0459 -21.0418 -21.0360 -21.0337
   -21.0305 -21.0302 -20.9292 -20.9271 -20.9268 -20.9259 -20.9212 -20.9193
    -4.7340  -4.2252  -1.7514  -1.3928  -1.3255  -1.0644  -0.7936  -0.6637
     0.7669   0.9361   1.1640   1.2449   5.8337   6.0266   6.1601   6.7801
     6.9172   7.2827   7.5764

          k = 0.1667-0.4821 0.1157 ( 16376 PWs)   bands (ev):

   -49.1149 -49.1149 -49.1145 -49.1145 -48.9969 -48.9969 -21.0665 -21.0665
   -21.0549 -21.0549 -21.0525 -21.0525 -21.0424 -21.0424 -21.0340 -21.0340
   -21.0321 -21.0321 -20.9287 -20.9287 -20.9260 -20.9260 -20.9199 -20.9199
    -4.4226  -4.4226  -1.8237  -1.8237  -1.0148  -1.0148  -0.7892  -0.7892
     0.7686   0.7686   1.2736   1.2736   5.7661   5.7661   6.8093   6.8093
     7.2095   7.2095   8.3360

          k = 0.1667-0.4821 0.2894 ( 16402 PWs)   bands (ev):

   -49.1148 -49.1148 -49.1147 -49.1147 -48.9969 -48.9969 -21.0626 -21.0626
   -21.0557 -21.0557 -21.0519 -21.0519 -21.0464 -21.0464 -21.0351 -21.0351
   -21.0311 -21.0311 -20.9278 -20.9278 -20.9261 -20.9261 -20.9203 -20.9203
    -4.3859  -4.3859  -2.1166  -2.1166  -0.8492  -0.8492  -0.6280  -0.6280
     0.8334   0.8334   1.2005   1.2005   5.5680   5.5680   6.9767   6.9767
     7.4198   7.4198   7.9543

          k = 0.1667-0.4821-0.2316 ( 16390 PWs)   bands (ev):

   -49.1149 -49.1149 -49.1146 -49.1146 -48.9969 -48.9969 -21.0635 -21.0635
   -21.0552 -21.0552 -21.0509 -21.0509 -21.0472 -21.0472 -21.0351 -21.0351
   -21.0310 -21.0310 -20.9271 -20.9271 -20.9260 -20.9260 -20.9211 -20.9211
    -4.3954  -4.3954  -2.0574  -2.0574  -0.8925  -0.8925  -0.6413  -0.6413
     0.8534   0.8534   1.1562   1.1562   5.7577   5.7577   6.6516   6.6516
     7.4005   7.4006   8.1176

          k = 0.1667-0.4821-0.0579 ( 16380 PWs)   bands (ev):

   -49.1150 -49.1150 -49.1145 -49.1145 -48.9969 -48.9969 -21.0671 -21.0671
   -21.0547 -21.0547 -21.0521 -21.0521 -21.0427 -21.0427 -21.0341 -21.0341
   -21.0317 -21.0317 -20.9280 -20.9280 -20.9259 -20.9259 -20.9206 -20.9206
    -4.4314  -4.4314  -1.7175  -1.7175  -1.1019  -1.1019  -0.8182  -0.8182
     0.8251   0.8251   1.2041   1.2041   6.0947   6.0947   6.4017   6.4017
     7.1794   7.1794   8.3190

          k = 0.3333 0.0000 0.2315 ( 16398 PWs)   bands (ev):

   -49.1152 -49.1150 -49.1145 -49.1143 -48.9969 -48.9969 -21.0645 -21.0627
   -21.0568 -21.0521 -21.0514 -21.0499 -21.0464 -21.0458 -21.0381 -21.0352
   -21.0314 -21.0313 -20.9302 -20.9267 -20.9265 -20.9260 -20.9207 -20.9182
    -4.6574  -4.3362  -2.0815  -1.7448  -0.8690  -0.8221  -0.5365  -0.4290
     0.6143   0.9063   1.0657   1.3967   5.2443   5.3565   6.6529   6.9922
     7.1541   7.3138   7.4580

          k = 0.3333 0.0000 0.4051 ( 16406 PWs)   bands (ev):

   -49.1152 -49.1150 -49.1145 -49.1143 -48.9969 -48.9969 -21.0649 -21.0608
   -21.0562 -21.0522 -21.0504 -21.0501 -21.0488 -21.0469 -21.0377 -21.0344
   -21.0326 -21.0304 -20.9309 -20.9273 -20.9269 -20.9263 -20.9189 -20.9180
    -4.5695  -4.4298  -2.0069  -1.9142  -0.8683  -0.6199  -0.6172  -0.4471
     0.8012   0.8997   0.9941   1.2955   5.1188   5.5406   6.5192   6.7922
     6.8414   7.4040   7.5146

          k = 0.3333 0.0000-0.1159 ( 16420 PWs)   bands (ev):

   -49.1153 -49.1148 -49.1146 -49.1142 -48.9970 -48.9968 -21.0648 -21.0618
   -21.0566 -21.0559 -21.0519 -21.0493 -21.0474 -21.0458 -21.0354 -21.0348
   -21.0320 -21.0298 -20.9296 -20.9280 -20.9268 -20.9261 -20.9193 -20.9184
    -4.7544  -4.2450  -1.9095  -1.5100  -1.3066  -0.7852  -0.5677  -0.5343
     0.6910   0.9853   1.1344   1.2092   5.2371   6.1949   6.2865   6.5559
     6.6252   7.1284   7.8261

          k = 0.3333 0.0000 0.0578 ( 16403 PWs)   bands (ev):

   -49.1153 -49.1149 -49.1146 -49.1142 -48.9970 -48.9968 -21.0644 -21.0633
   -21.0590 -21.0531 -21.0514 -21.0503 -21.0477 -21.0437 -21.0358 -21.0350
   -21.0318 -21.0302 -20.9288 -20.9275 -20.9261 -20.9260 -20.9212 -20.9186
    -4.7886  -4.2068  -1.8784  -1.3793  -1.3338  -0.9495  -0.6584  -0.4203
     0.5682   0.9710   1.0938   1.3799   5.3413   5.8393   6.2748   6.7030
     7.1503   7.3973   7.4848

          k = 0.3333 0.1607 0.2315 ( 16395 PWs)   bands (ev):

   -49.1151 -49.1150 -49.1145 -49.1144 -48.9969 -48.9969 -21.0663 -21.0618
   -21.0576 -21.0548 -21.0527 -21.0498 -21.0464 -21.0445 -21.0373 -21.0348
   -21.0307 -21.0295 -20.9304 -20.9262 -20.9261 -20.9259 -20.9212 -20.9184
    -4.5882  -4.2957  -1.9941  -1.6986  -1.1672  -0.8127  -0.6930  -0.5723
     0.6732   0.8322   1.1730   1.3529   5.4455   5.6719   6.6243   6.8058
     6.9682   7.2453   7.6681

          k = 0.3333 0.1607 0.4051 ( 16392 PWs)   bands (ev):

   -49.1151 -49.1149 -49.1145 -49.1144 -48.9969 -48.9969 -21.0654 -21.0614
   -21.0566 -21.0540 -21.0518 -21.0503 -21.0488 -21.0470 -21.0364 -21.0341
   -21.0311 -21.0294 -20.9304 -20.9272 -20.9263 -20.9259 -20.9196 -20.9188
    -4.5066  -4.3796  -1.9316  -1.8551  -1.0763  -0.9291  -0.6221  -0.5310
     0.8108   0.9558   1.0720   1.2151   5.4982   5.7060   6.3653   6.7223
     7.0596   7.2535   7.8622

          k = 0.3333 0.1607-0.1159 ( 16390 PWs)   bands (ev):

   -49.1153 -49.1148 -49.1146 -49.1143 -48.9970 -48.9968 -21.0681 -21.0616
   -21.0571 -21.0552 -21.0530 -21.0497 -21.0487 -21.0435 -21.0354 -21.0339
   -21.0309 -21.0288 -20.9304 -20.9274 -20.9264 -20.9256 -20.9202 -20.9182
    -4.6787  -4.2160  -1.8251  -1.4933  -1.3395  -0.9591  -0.7208  -0.6636
     0.8407   0.8643   1.0907   1.1789   5.6236   6.0996   6.2884   6.5102
     7.0969   7.3129   7.6921

          k = 0.3333 0.1607 0.0578 ( 16405 PWs)   bands (ev):

   -49.1153 -49.1149 -49.1146 -49.1143 -48.9970 -48.9969 -21.0686 -21.0629
   -21.0580 -21.0545 -21.0530 -21.0506 -21.0454 -21.0430 -21.0359 -21.0343
   -21.0307 -21.0288 -20.9299 -20.9274 -20.9263 -20.9256 -20.9207 -20.9184
    -4.7110  -4.1829  -1.7970  -1.3743  -1.3276  -1.0896  -0.7751  -0.6279
     0.6672   0.8009   1.1810   1.3013   5.6345   5.9130   6.4051   6.7055
     7.0182   7.3149   7.7096

          k = 0.3333 0.3214 0.2315 ( 16384 PWs)   bands (ev):

   -49.1150 -49.1148 -49.1146 -49.1145 -48.9969 -48.9969 -21.0673 -21.0642
   -21.0586 -21.0567 -21.0540 -21.0517 -21.0464 -21.0446 -21.0333 -21.0325
   -21.0294 -21.0281 -20.9304 -20.9274 -20.9252 -20.9251 -20.9209 -20.9190
    -4.4151  -4.2247  -1.7909  -1.6738  -1.5185  -1.1315  -0.8089  -0.7678
     0.6622   0.7458   1.2227   1.3152   5.9683   6.1716   6.3804   6.8801
     7.2438   7.5223   7.7484

          k = 0.3333 0.3214 0.4051 ( 16387 PWs)   bands (ev):

   -49.1150 -49.1148 -49.1146 -49.1145 -48.9969 -48.9969 -21.0659 -21.0637
   -21.0568 -21.0560 -21.0539 -21.0508 -21.0495 -21.0479 -21.0336 -21.0314
   -21.0293 -21.0285 -20.9292 -20.9269 -20.9255 -20.9250 -20.9208 -20.9203
    -4.3570  -4.2746  -1.7904  -1.7744  -1.4443  -1.2311  -0.7809  -0.7263
     0.7200   1.0012   1.0671   1.2366   6.0616   6.1239   6.4850   6.8668
     7.1716   7.3899   7.6916

          k = 0.3333 0.3214-0.1159 ( 16373 PWs)   bands (ev):

   -49.1151 -49.1148 -49.1146 -49.1144 -48.9970 -48.9969 -21.0701 -21.0660
   -21.0577 -21.0565 -21.0533 -21.0522 -21.0460 -21.0422 -21.0337 -21.0312
   -21.0292 -21.0285 -20.9311 -20.9283 -20.9251 -20.9248 -20.9205 -20.9186
    -4.4826  -4.1837  -1.6589  -1.5726  -1.5543  -0.9651  -0.9447  -0.8557
     0.5792   0.6871   1.1683   1.2221   6.0310   6.2824   6.6147   6.7957
     7.2412   7.6279   7.8889

          k = 0.3333 0.3214 0.0578 ( 16386 PWs)   bands (ev):

   -49.1151 -49.1148 -49.1146 -49.1144 -48.9970 -48.9969 -21.0709 -21.0672
   -21.0580 -21.0563 -21.0541 -21.0527 -21.0428 -21.0409 -21.0339 -21.0319
   -21.0293 -21.0281 -20.9315 -20.9296 -20.9251 -20.9248 -20.9197 -20.9183
    -4.5075  -4.1674  -1.6881  -1.5065  -1.4263  -1.0965  -0.9037  -0.8723
     0.4499   0.6478   1.1947   1.2829   6.0187   6.2040   6.4154   7.0675
     7.2956   7.6346   8.0990

          k = 0.3333-0.4821 0.2315 ( 16402 PWs)   bands (ev):

   -49.1148 -49.1148 -49.1146 -49.1146 -48.9969 -48.9969 -21.0666 -21.0666
   -21.0583 -21.0583 -21.0535 -21.0535 -21.0457 -21.0457 -21.0303 -21.0303
   -21.0293 -21.0293 -20.9294 -20.9294 -20.9248 -20.9248 -20.9199 -20.9199
    -4.2512  -4.2512  -1.7868  -1.7868  -1.3309  -1.3309  -0.9050  -0.9050
     0.6801   0.6801   1.2535   1.2535   6.1932   6.1932   6.6989   6.6989
     7.6375   7.6375   8.1557

          k = 0.3333-0.4821 0.4051 ( 16408 PWs)   bands (ev):

   -49.1148 -49.1148 -49.1147 -49.1147 -48.9969 -48.9969 -21.0655 -21.0655
   -21.0565 -21.0565 -21.0536 -21.0536 -21.0488 -21.0488 -21.0306 -21.0306
   -21.0289 -21.0289 -20.9277 -20.9277 -20.9249 -20.9249 -20.9211 -20.9211
    -4.2428  -4.2428  -1.8360  -1.8360  -1.3193  -1.3193  -0.9101  -0.9101
     0.7893   0.7893   1.2016   1.2016   6.1689   6.1689   6.9018   6.9018
     7.3819   7.3819   8.0738

          k = 0.3333-0.4821-0.1159 ( 16366 PWs)   bands (ev):

   -49.1149 -49.1149 -49.1145 -49.1145 -48.9969 -48.9969 -21.0693 -21.0693
   -21.0578 -21.0578 -21.0537 -21.0537 -21.0430 -21.0430 -21.0306 -21.0306
   -21.0290 -21.0290 -20.9303 -20.9303 -20.9244 -20.9244 -20.9196 -20.9196
    -4.2707  -4.2707  -1.7465  -1.7465  -1.2416  -1.2416  -0.8877  -0.8877
     0.4790   0.4790   1.2317   1.2317   6.1309   6.1309   7.1122   7.1122
     7.4940   7.4940   8.3688

          k = 0.3333-0.4821 0.0578 ( 16368 PWs)   bands (ev):

   -49.1149 -49.1149 -49.1145 -49.1145 -48.9969 -48.9969 -21.0703 -21.0703
   -21.0579 -21.0579 -21.0542 -21.0542 -21.0409 -21.0409 -21.0302 -21.0302
   -21.0295 -21.0295 -20.9315 -20.9315 -20.9245 -20.9245 -20.9187 -20.9187
    -4.2787  -4.2787  -1.7142  -1.7142  -1.1658  -1.1658  -0.9596  -0.9596
     0.4154   0.4154   1.2444   1.2444   6.0902   6.0902   7.0351   7.0351
     7.7900   7.7900   8.3840

          k =-0.5000 0.0000-0.3472 ( 16388 PWs)   bands (ev):

   -49.1150 -49.1148 -49.1146 -49.1145 -48.9969 -48.9969 -21.0650 -21.0612
   -21.0544 -21.0509 -21.0501 -21.0489 -21.0480 -21.0477 -21.0414 -21.0344
   -21.0342 -21.0310 -20.9317 -20.9277 -20.9259 -20.9255 -20.9189 -20.9177
    -4.3953  -4.3687  -2.2725  -2.2104  -0.8026  -0.5439  -0.5113  -0.3902
     0.6427   0.8929   1.0059   1.2977   5.0753   5.2099   6.5670   6.6317
     7.1820   7.5522   8.0392

          k =-0.5000 0.0000-0.1735 ( 16398 PWs)   bands (ev):

   -49.1150 -49.1149 -49.1145 -49.1145 -48.9969 -48.9969 -21.0647 -21.0604
   -21.0586 -21.0528 -21.0508 -21.0492 -21.0472 -21.0464 -21.0379 -21.0349
   -21.0331 -21.0314 -20.9304 -20.9274 -20.9258 -20.9255 -20.9196 -20.9185
    -4.4209  -4.4028  -2.0794  -2.0173  -0.9349  -0.7605  -0.6097  -0.4688
     0.7252   0.9658   0.9739   1.2594   5.2905   5.4663   6.7185   7.0009
     7.0481   7.2193   7.4116

          k =-0.5000 0.0000-0.6945 ( 16416 PWs)   bands (ev):

   -49.1150 -49.1150 -49.1144 -49.1144 -48.9969 -48.9969 -21.0630 -21.0630
   -21.0573 -21.0573 -21.0507 -21.0507 -21.0453 -21.0453 -21.0354 -21.0354
   -21.0321 -21.0321 -20.9280 -20.9280 -20.9255 -20.9255 -20.9200 -20.9200
    -4.4400  -4.4400  -1.7473  -1.7473  -1.1761  -1.1761  -0.5747  -0.5747
     0.8628   0.8628   1.1355   1.1355   5.8737   5.8737   6.2670   6.2670
     7.0871   7.0871   7.9481

          k =-0.5000 0.1607-0.3472 ( 16400 PWs)   bands (ev):

   -49.1150 -49.1148 -49.1147 -49.1145 -48.9969 -48.9969 -21.0651 -21.0625
   -21.0557 -21.0546 -21.0511 -21.0493 -21.0489 -21.0486 -21.0369 -21.0326
   -21.0325 -21.0300 -20.9312 -20.9275 -20.9253 -20.9251 -20.9196 -20.9185
    -4.3440  -4.3197  -2.1730  -2.1169  -0.9458  -0.7340  -0.6952  -0.6116
     0.6524   0.9091   1.1558   1.2343   5.3850   5.4779   6.4075   6.9431
     7.3306   7.7769   7.8122

          k =-0.5000 0.1607-0.1735 ( 16399 PWs)   bands (ev):

   -49.1150 -49.1149 -49.1145 -49.1145 -48.9969 -48.9969 -21.0670 -21.0621
   -21.0582 -21.0547 -21.0531 -21.0508 -21.0466 -21.0442 -21.0360 -21.0333
   -21.0315 -21.0302 -20.9311 -20.9273 -20.9252 -20.9251 -20.9205 -20.9182
    -4.3675  -4.3509  -2.0014  -1.9401  -1.0367  -0.8595  -0.7648  -0.6673
     0.6597   0.8394   1.1181   1.2453   5.5838   5.7380   6.5619   6.7220
     7.2651   7.3471   7.8951

          k =-0.5000 0.1607-0.6945 ( 16394 PWs)   bands (ev):

   -49.1150 -49.1150 -49.1145 -49.1145 -48.9969 -48.9969 -21.0665 -21.0665
   -21.0561 -21.0561 -21.0525 -21.0525 -21.0439 -21.0439 -21.0340 -21.0340
   -21.0307 -21.0307 -20.9293 -20.9293 -20.9251 -20.9251 -20.9194 -20.9194
    -4.3850  -4.3850  -1.7201  -1.7201  -1.1413  -1.1413  -0.7875  -0.7875
     0.7594   0.7594   1.1463   1.1463   6.0349   6.0349   6.3553   6.3553
     7.2722   7.2722   8.1848

          k =-0.5000 0.3214-0.3472 ( 16406 PWs)   bands (ev):

   -49.1149 -49.1148 -49.1147 -49.1146 -48.9970 -48.9969 -21.0660 -21.0653
   -21.0575 -21.0569 -21.0531 -21.0517 -21.0497 -21.0496 -21.0315 -21.0296
   -21.0295 -21.0284 -20.9298 -20.9272 -20.9247 -20.9242 -20.9208 -20.9203
    -4.2285  -4.2127  -1.8920  -1.8519  -1.2888  -1.2042  -1.0040  -0.9785
     0.6699   1.0359   1.0396   1.2901   5.8565   6.2440   6.4464   7.0193
     7.5263   7.7785   7.7917

          k =-0.5000 0.3214-0.1735 ( 16373 PWs)   bands (ev):

   -49.1149 -49.1149 -49.1146 -49.1145 -48.9969 -48.9969 -21.0692 -21.0669
   -21.0586 -21.0580 -21.0543 -21.0526 -21.0459 -21.0433 -21.0314 -21.0303
   -21.0289 -21.0284 -20.9317 -20.9287 -20.9243 -20.9241 -20.9205 -20.9185
    -4.2468  -4.2358  -1.8336  -1.7672  -1.3149  -1.1968  -0.9209  -0.8864
     0.4885   0.6204   1.2322   1.2473   6.0409   6.1239   6.6040   7.0623
     7.3439   7.9377   8.3874

          k =-0.5000 0.3214-0.6945 ( 16394 PWs)   bands (ev):

   -49.1150 -49.1150 -49.1145 -49.1145 -48.9969 -48.9969 -21.0704 -21.0704
   -21.0581 -21.0581 -21.0542 -21.0542 -21.0413 -21.0413 -21.0309 -21.0309
   -21.0285 -21.0285 -20.9317 -20.9317 -20.9241 -20.9241 -20.9185 -20.9185
    -4.2612  -4.2612  -1.7649  -1.7649  -1.0626  -1.0626  -0.9912  -0.9912
     0.3786   0.3786   1.2017   1.2017   6.0776   6.0776   6.9785   6.9785
     7.8376   7.8376   8.4679

          k =-0.5000-0.4821-0.3472 ( 16420 PWs)   bands (ev):

   -49.1147 -49.1147 -49.1147 -49.1147 -48.9969 -48.9969 -21.0669 -21.0669
   -21.0565 -21.0565 -21.0546 -21.0546 -21.0499 -21.0499 -21.0287 -21.0287
   -21.0280 -21.0280 -20.9281 -20.9281 -20.9242 -20.9242 -20.9212 -20.9212
    -4.1580  -4.1580  -1.5442  -1.5442  -1.4590  -1.4590  -1.3301  -1.3301
     0.8180   0.8180   1.2085   1.2085   6.3485   6.3485   6.5675   6.5675
     7.9626   7.9626   8.3408

          k =-0.5000-0.4821-0.1735 ( 16384 PWs)   bands (ev):

   -49.1149 -49.1149 -49.1146 -49.1146 -48.9969 -48.9969 -21.0694 -21.0694
   -21.0594 -21.0594 -21.0541 -21.0541 -21.0443 -21.0443 -21.0288 -21.0288
   -21.0281 -21.0281 -20.9308 -20.9308 -20.9238 -20.9238 -20.9194 -20.9194
    -4.1743  -4.1743  -1.7657  -1.7657  -1.2138  -1.2138  -1.1367  -1.1367
     0.4744   0.4744   1.2421   1.2421   6.1222   6.1222   7.1113   7.1113
     8.0932   8.0932   8.4842

          k =-0.5000-0.4821-0.6945 ( 16352 PWs)   bands (ev):

   -49.1149 -49.1149 -49.1145 -49.1145 -48.9969 -48.9969 -21.0719 -21.0719
   -21.0592 -21.0592 -21.0550 -21.0550 -21.0403 -21.0403 -21.0288 -21.0288
   -21.0281 -21.0281 -20.9329 -20.9329 -20.9237 -20.9237 -20.9181 -20.9181
    -4.1902  -4.1902  -1.8621  -1.8621  -1.0097  -1.0097  -0.9714  -0.9714
     0.1484   0.1484   1.2030   1.2030   6.0668   6.0668   7.5128   7.5128
     8.2631   8.2631   8.4820

     the Fermi energy is     3.6370 ev

!    total energy              =    -665.33752778 Ry
     estimated scf accuracy    <          2.7E-09 Ry
     smearing contrib. (-TS)   =       0.00000000 Ry
     internal energy E=F+TS    =    -665.33752778 Ry

     The total energy is F=E-TS. E is the sum of the following terms:
     one-electron contribution =    -482.00106117 Ry
     hartree contribution      =     254.79460605 Ry
     xc contribution           =    -100.22693899 Ry
     ewald contribution        =    -268.56805625 Ry
     one-center paw contrib.   =     -69.33607741 Ry

     convergence has been achieved in   4 iterations

     Forces acting on atoms (cartesian axes, Ry/au):

     atom    1 type  1   force =     0.00000000    0.00000000    0.00000000
     atom    2 type  1   force =     0.00000000    0.00000000    0.00000000
     atom    3 type  3   force =     0.00000000    0.00000000    0.00000000
     atom    4 type  3   force =     0.00000000    0.00000000    0.00000000
     atom    5 type  3   force =    -0.00042588    0.00040555    0.00030775
     atom    6 type  3   force =     0.00042588   -0.00040555   -0.00030775
     atom    7 type  3   force =     0.00042588    0.00040555   -0.00030775
     atom    8 type  3   force =    -0.00042588   -0.00040555    0.00030775
     atom    9 type  2   force =    -0.00071535    0.00155200    0.00057067
     atom   10 type  2   force =     0.00071535   -0.00155200   -0.00057067
     atom   11 type  2   force =     0.00071535    0.00155200   -0.00057067
     atom   12 type  2   force =    -0.00071535   -0.00155200    0.00057067
     atom   13 type  2   force =     0.00158075   -0.00098772   -0.00034114
     atom   14 type  2   force =    -0.00158075    0.00098772    0.00034114
     atom   15 type  2   force =    -0.00158075   -0.00098772    0.00034114
     atom   16 type  2   force =     0.00158075    0.00098772   -0.00034114
     atom   17 type  2   force =    -0.00074792   -0.00004749   -0.00186113
     atom   18 type  2   force =     0.00074792    0.00004749    0.00186113
     atom   19 type  2   force =     0.00074792   -0.00004749    0.00186113
     atom   20 type  2   force =    -0.00074792    0.00004749   -0.00186113

     Total force =     0.006724     Total SCF correction =     0.000028


     Computing stress (Cartesian axis) and pressure

          total   stress  (Ry/bohr**3)                   (kbar)     P=       14.70
   0.00009992   0.00000000   0.00000016           14.70        0.00        0.02
   0.00000000   0.00009892   0.00000000            0.00       14.55        0.00
   0.00000016   0.00000000   0.00010101            0.02        0.00       14.86

     Energy error            =      6.2E-05 Ry
     Gradient error          =      1.9E-03 Ry/Bohr

     number of scf cycles    =   2
     number of bfgs steps    =   1

     energy             old  =    -665.3374661710 Ry
     energy             new  =    -665.3375277756 Ry

     CASE: energy            _new < energy            _old


     WARNING: bfgs curvature condition failed, Theta= 0.981
     new trust radius        =       0.0026976650 bohr
     new conv_thr            =            1.0E-10 Ry


ATOMIC_POSITIONS (crystal)
Al            0.5000000000        0.0000000000        0.0000000000
Al            0.5000000000        0.5000000000        0.5000000000
Na           -0.0000000000        0.0000000000        0.5000000000
Na            0.0000000000        0.5000000000        0.0000000000
Na            0.2575893765        0.9528153511        0.2465217190
Na            0.7424106235        0.0471846489        0.7534782810
Na            0.7424106235        0.4528153511        0.2534782810
Na            0.2575893765        0.5471846489        0.7465217190
H             0.4016043458        0.7676244663        0.5630814809
H             0.5983956542        0.2323755337        0.4369185191
H             0.5983956542        0.2676244663        0.9369185191
H             0.4016043458        0.7323755337        0.0630814809
H             0.7288674507        0.8300315517        0.9565001607
H             0.2711325493        0.1699684483        0.0434998393
H             0.2711325493        0.3300315517        0.5434998393
H             0.7288674507        0.6699684483        0.4565001607
H             0.1832288002        0.9522856680        0.7829274179
H             0.8167711998        0.0477143320        0.2170725821
H             0.8167711998        0.4522856680        0.7170725821
H             0.1832288002        0.5477143320        0.2829274179



     Writing config-only to output data dir temp/na3alh6.save/
     NEW-OLD atomic charge density approx. for the potential

     total cpu time spent up to now is       18.2 secs

     Self-consistent Calculation

     iteration #  1     ecut=    75.00 Ry     beta= 0.70
     Davidson diagonalization with overlap
     ethr =  1.00E-06,  avg # of iterations =  2.0

     Threshold (ethr) on eigenvalues was too large:
     Diagonalizing with lowered threshold

     Davidson diagonalization with overlap
     ethr =  1.03E-08,  avg # of iterations =  2.0

     total cpu time spent up to now is       20.3 secs

     total energy              =    -665.33757872 Ry
[...]
   -21.0530 -21.0484 -21.0478 -21.0462 -21.0427 -21.0422 -21.0344 -21.0316
   -21.0279 -21.0277 -20.9227 -20.9193 -20.9190 -20.9186 -20.9135 -20.9109
    -4.6498  -4.3270  -2.0812  -1.7440  -0.8648  -0.8187  -0.5325  -0.4243
     0.6093   0.9022   1.0608   1.3935   5.2413   5.3547   6.6499   6.9906
     7.1529   7.3059   7.4570

          k = 0.3333 0.0000 0.4051 ( 16406 PWs)   bands (ev):

   -49.1115 -49.1113 -49.1108 -49.1107 -48.9891 -48.9891 -21.0608 -21.0568
   -21.0524 -21.0486 -21.0468 -21.0464 -21.0452 -21.0433 -21.0341 -21.0308
   -21.0290 -21.0269 -20.9235 -20.9199 -20.9194 -20.9189 -20.9118 -20.9108
    -4.5616  -4.4208  -2.0074  -1.9129  -0.8635  -0.6167  -0.6125  -0.4431
     0.7966   0.8945   0.9904   1.2919   5.1157   5.5386   6.5165   6.7854
     6.8407   7.4049   7.5102

          k = 0.3333 0.0000-0.1159 ( 16420 PWs)   bands (ev):

   -49.1117 -49.1112 -49.1109 -49.1106 -48.9892 -48.9890 -21.0607 -21.0580
   -21.0527 -21.0522 -21.0482 -21.0457 -21.0436 -21.0421 -21.0318 -21.0312
   -21.0285 -21.0263 -20.9223 -20.9206 -20.9194 -20.9186 -20.9120 -20.9113
    -4.7473  -4.2350  -1.9102  -1.5074  -1.3038  -0.7810  -0.5646  -0.5304
     0.6858   0.9808   1.1306   1.2063   5.2337   6.1968   6.2859   6.5576
     6.6233   7.1226   7.8208

          k = 0.3333 0.0000 0.0578 ( 16403 PWs)   bands (ev):

   -49.1117 -49.1112 -49.1109 -49.1106 -48.9891 -48.9890 -21.0605 -21.0593
   -21.0553 -21.0494 -21.0478 -21.0466 -21.0438 -21.0401 -21.0322 -21.0314
   -21.0282 -21.0266 -20.9214 -20.9201 -20.9186 -20.9186 -20.9139 -20.9114
    -4.7816  -4.1967  -1.8779  -1.3781  -1.3312  -0.9454  -0.6557  -0.4154
     0.5629   0.9670   1.0893   1.3770   5.3390   5.8390   6.2742   6.7015
     7.1556   7.3932   7.4760

          k = 0.3333 0.1607 0.2315 ( 16395 PWs)   bands (ev):

   -49.1115 -49.1113 -49.1109 -49.1107 -48.9891 -48.9891 -21.0623 -21.0578
   -21.0538 -21.0511 -21.0490 -21.0462 -21.0427 -21.0409 -21.0337 -21.0312
   -21.0271 -21.0259 -20.9229 -20.9188 -20.9187 -20.9185 -20.9139 -20.9112
    -4.5802  -4.2863  -1.9937  -1.6977  -1.1650  -0.8083  -0.6904  -0.5678
     0.6686   0.8278   1.1687   1.3499   5.4428   5.6702   6.6242   6.8065
     6.9639   7.2460   7.6646

          k = 0.3333 0.1607 0.4051 ( 16392 PWs)   bands (ev):

   -49.1115 -49.1113 -49.1109 -49.1107 -48.9891 -48.9891 -21.0613 -21.0575
   -21.0528 -21.0503 -21.0481 -21.0467 -21.0451 -21.0434 -21.0328 -21.0305
   -21.0275 -21.0258 -20.9230 -20.9197 -20.9188 -20.9184 -20.9124 -20.9115
    -4.4984  -4.3704  -1.9320  -1.8537  -1.0732  -0.9263  -0.6180  -0.5270
     0.8065   0.9515   1.0679   1.2120   5.4957   5.7040   6.3628   6.7194
     7.0610   7.2529   7.8586

          k = 0.3333 0.1607-0.1159 ( 16390 PWs)   bands (ev):

   -49.1116 -49.1111 -49.1110 -49.1106 -48.9892 -48.9890 -21.0641 -21.0577
   -21.0533 -21.0515 -21.0493 -21.0460 -21.0449 -21.0398 -21.0318 -21.0303
   -21.0274 -21.0252 -20.9230 -20.9200 -20.9190 -20.9182 -20.9130 -20.9111
    -4.6713  -4.2059  -1.8256  -1.4905  -1.3368  -0.9568  -0.7176  -0.6603
     0.8359   0.8608   1.0869   1.1752   5.6208   6.0994   6.2905   6.5091
     7.0980   7.3076   7.6860

          k = 0.3333 0.1607 0.0578 ( 16405 PWs)   bands (ev):

   -49.1116 -49.1112 -49.1109 -49.1106 -48.9891 -48.9890 -21.0646 -21.0590
   -21.0543 -21.0508 -21.0493 -21.0469 -21.0416 -21.0393 -21.0323 -21.0307
   -21.0272 -21.0252 -20.9225 -20.9200 -20.9188 -20.9182 -20.9135 -20.9112
    -4.7037  -4.1727  -1.7962  -1.3725  -1.3250  -1.0874  -0.7723  -0.6241
     0.6628   0.7967   1.1768   1.2981   5.6332   5.9114   6.4061   6.7077
     7.0191   7.3087   7.7053

          k = 0.3333 0.3214 0.2315 ( 16384 PWs)   bands (ev):

   -49.1113 -49.1112 -49.1110 -49.1108 -48.9891 -48.9891 -21.0633 -21.0602
   -21.0548 -21.0530 -21.0503 -21.0481 -21.0428 -21.0410 -21.0297 -21.0289
   -21.0259 -21.0245 -20.9229 -20.9200 -20.9178 -20.9177 -20.9137 -20.9118
    -4.4062  -4.2147  -1.7907  -1.6729  -1.5173  -1.1290  -0.8057  -0.7646
     0.6580   0.7414   1.2189   1.3120   5.9659   6.1709   6.3827   6.8833
     7.2412   7.5167   7.7477

          k = 0.3333 0.3214 0.4051 ( 16387 PWs)   bands (ev):

   -49.1113 -49.1112 -49.1110 -49.1108 -48.9891 -48.9891 -21.0618 -21.0597
   -21.0531 -21.0522 -21.0502 -21.0472 -21.0459 -21.0443 -21.0300 -21.0279
   -21.0257 -21.0250 -20.9218 -20.9195 -20.9180 -20.9176 -20.9136 -20.9130
    -4.3479  -4.2647  -1.7901  -1.7741  -1.4427  -1.2291  -0.7783  -0.7223
     0.7159   0.9982   1.0629   1.2330   6.0598   6.1224   6.4852   6.8696
     7.1716   7.3886   7.6850

          k = 0.3333 0.3214-0.1159 ( 16373 PWs)   bands (ev):

   -49.1114 -49.1111 -49.1110 -49.1107 -48.9892 -48.9891 -21.0660 -21.0620
   -21.0539 -21.0528 -21.0497 -21.0485 -21.0423 -21.0385 -21.0301 -21.0276
   -21.0256 -21.0249 -20.9236 -20.9209 -20.9177 -20.9174 -20.9133 -20.9114
    -4.4742  -4.1734  -1.6574  -1.5704  -1.5542  -0.9624  -0.9418  -0.8530
     0.5741   0.6834   1.1644   1.2183   6.0320   6.2837   6.6125   6.7978
     7.2368   7.6253   7.8918

          k = 0.3333 0.3214 0.0578 ( 16386 PWs)   bands (ev):

   -49.1115 -49.1112 -49.1110 -49.1107 -48.9891 -48.9891 -21.0669 -21.0632
   -21.0543 -21.0526 -21.0504 -21.0491 -21.0391 -21.0373 -21.0303 -21.0283
   -21.0257 -21.0245 -20.9240 -20.9222 -20.9177 -20.9174 -20.9125 -20.9111
    -4.4993  -4.1570  -1.6868  -1.5042  -1.4252  -1.0949  -0.9004  -0.8693
     0.4443   0.6441   1.1905   1.2792   6.0199   6.2048   6.4156   7.0673
     7.2949   7.6341   8.0929

          k = 0.3333-0.4821 0.2315 ( 16402 PWs)   bands (ev):

   -49.1112 -49.1112 -49.1110 -49.1110 -48.9891 -48.9891 -21.0626 -21.0626
   -21.0546 -21.0546 -21.0499 -21.0499 -21.0420 -21.0420 -21.0267 -21.0267
   -21.0257 -21.0257 -20.9219 -20.9219 -20.9174 -20.9174 -20.9127 -20.9127
    -4.2413  -4.2413  -1.7870  -1.7870  -1.3284  -1.3284  -0.9026  -0.9026
     0.6762   0.6762   1.2497   1.2497   6.1947   6.1947   6.6973   6.6974
     7.6350   7.6350   8.1550

          k = 0.3333-0.4821 0.4051 ( 16408 PWs)   bands (ev):

   -49.1111 -49.1111 -49.1110 -49.1110 -48.9891 -48.9891 -21.0615 -21.0615
   -21.0528 -21.0528 -21.0499 -21.0499 -21.0452 -21.0452 -21.0270 -21.0270
   -21.0253 -21.0253 -20.9203 -20.9203 -20.9175 -20.9175 -20.9139 -20.9139
    -4.2328  -4.2328  -1.8362  -1.8362  -1.3171  -1.3171  -0.9077  -0.9077
     0.7861   0.7861   1.1976   1.1976   6.1689   6.1689   6.9040   6.9040
     7.3765   7.3765   8.0727

          k = 0.3333-0.4821-0.1159 ( 16366 PWs)   bands (ev):

   -49.1112 -49.1112 -49.1109 -49.1109 -48.9891 -48.9891 -21.0652 -21.0652
   -21.0541 -21.0541 -21.0501 -21.0501 -21.0393 -21.0393 -21.0270 -21.0270
   -21.0255 -21.0255 -20.9229 -20.9229 -20.9170 -20.9170 -20.9124 -20.9124
    -4.2611  -4.2611  -1.7452  -1.7452  -1.2406  -1.2406  -0.8842  -0.8842
     0.4742   0.4742   1.2278   1.2278   6.1327   6.1327   7.1128   7.1128
     7.4907   7.4907   8.3684

          k = 0.3333-0.4821 0.0578 ( 16368 PWs)   bands (ev):

   -49.1113 -49.1113 -49.1109 -49.1109 -48.9891 -48.9891 -21.0663 -21.0663
   -21.0542 -21.0542 -21.0506 -21.0506 -21.0373 -21.0373 -21.0265 -21.0265
   -21.0260 -21.0260 -20.9240 -20.9240 -20.9171 -20.9171 -20.9115 -20.9115
    -4.2691  -4.2691  -1.7129  -1.7129  -1.1637  -1.1637  -0.9570  -0.9570
     0.4104   0.4104   1.2403   1.2403   6.0924   6.0924   7.0346   7.0346
     7.7884   7.7884   8.3825

          k =-0.5000 0.0000-0.3472 ( 16388 PWs)   bands (ev):

   -49.1113 -49.1111 -49.1110 -49.1108 -48.9891 -48.9891 -21.0609 -21.0572
   -21.0506 -21.0472 -21.0465 -21.0453 -21.0444 -21.0442 -21.0377 -21.0308
   -21.0306 -21.0275 -20.9242 -20.9202 -20.9184 -20.9180 -20.9118 -20.9105
    -4.3860  -4.3595  -2.2728  -2.2116  -0.7977  -0.5404  -0.5057  -0.3858
     0.6378   0.8883   1.0007   1.2941   5.0721   5.2071   6.5614   6.6245
     7.1824   7.5548   8.0300

          k =-0.5000 0.0000-0.1735 ( 16398 PWs)   bands (ev):

   -49.1114 -49.1113 -49.1109 -49.1108 -48.9891 -48.9891 -21.0607 -21.0565
   -21.0547 -21.0491 -21.0471 -21.0455 -21.0435 -21.0427 -21.0344 -21.0313
   -21.0295 -21.0278 -20.9230 -20.9199 -20.9183 -20.9180 -20.9125 -20.9113
    -4.4120  -4.3940  -2.0789  -2.0177  -0.9305  -0.7566  -0.6065  -0.4645
     0.7205   0.9609   0.9699   1.2559   5.2877   5.4648   6.7149   6.9984
     7.0478   7.2182   7.4079

          k =-0.5000 0.0000-0.6945 ( 16416 PWs)   bands (ev):

   -49.1114 -49.1114 -49.1108 -49.1108 -48.9891 -48.9891 -21.0591 -21.0591
   -21.0534 -21.0534 -21.0470 -21.0470 -21.0416 -21.0416 -21.0318 -21.0318
   -21.0285 -21.0285 -20.9206 -20.9206 -20.9181 -20.9181 -20.9128 -20.9128
    -4.4314  -4.4314  -1.7459  -1.7459  -1.1737  -1.1737  -0.5709  -0.5709
     0.8582   0.8582   1.1319   1.1319   5.8710   5.8710   6.2689   6.2689
     7.0846   7.0846   7.9485

          k =-0.5000 0.1607-0.3472 ( 16400 PWs)   bands (ev):

   -49.1113 -49.1111 -49.1110 -49.1109 -48.9891 -48.9891 -21.0609 -21.0585
   -21.0519 -21.0509 -21.0474 -21.0457 -21.0453 -21.0450 -21.0333 -21.0290
   -21.0290 -21.0264 -20.9237 -20.9201 -20.9178 -20.9177 -20.9124 -20.9113
    -4.3344  -4.3103  -2.1731  -2.1180  -0.9420  -0.7297  -0.6917  -0.6085
     0.6479   0.9045   1.1516   1.2315   5.3824   5.4756   6.4032   6.9382
     7.3314   7.7822   7.8094

          k =-0.5000 0.1607-0.1735 ( 16399 PWs)   bands (ev):

   -49.1113 -49.1113 -49.1109 -49.1108 -48.9891 -48.9891 -21.0630 -21.0582
   -21.0544 -21.0510 -21.0494 -21.0472 -21.0429 -21.0405 -21.0324 -21.0297
   -21.0279 -21.0266 -20.9236 -20.9199 -20.9178 -20.9176 -20.9133 -20.9111
    -4.3582  -4.3418  -2.0007  -1.9402  -1.0326  -0.8573  -0.7604  -0.6646
     0.6550   0.8351   1.1139   1.2421   5.5826   5.7360   6.5597   6.7207
     7.2662   7.3429   7.8944

          k =-0.5000 0.1607-0.6945 ( 16394 PWs)   bands (ev):

   -49.1114 -49.1114 -49.1108 -49.1108 -48.9891 -48.9891 -21.0625 -21.0625
   -21.0524 -21.0524 -21.0488 -21.0488 -21.0402 -21.0402 -21.0304 -21.0304
   -21.0271 -21.0271 -20.9219 -20.9219 -20.9176 -20.9176 -20.9122 -20.9122
    -4.3761  -4.3761  -1.7185  -1.7185  -1.1387  -1.1387  -0.7853  -0.7853
     0.7554   0.7554   1.1422   1.1422   6.0343   6.0343   6.3549   6.3549
     7.2726   7.2726   8.1831

          k =-0.5000 0.3214-0.3472 ( 16406 PWs)   bands (ev):

   -49.1112 -49.1111 -49.1110 -49.1109 -48.9891 -48.9891 -21.0619 -21.0613
   -21.0538 -21.0531 -21.0494 -21.0480 -21.0461 -21.0460 -21.0278 -21.0261
   -21.0259 -21.0248 -20.9224 -20.9198 -20.9172 -20.9168 -20.9136 -20.9131
    -4.2184  -4.2027  -1.8914  -1.8522  -1.2867  -1.2021  -1.0016  -0.9771
     0.6665   1.0337   1.0350   1.2865   5.8542   6.2426   6.4472   7.0225
     7.5192   7.7785   7.7931

          k =-0.5000 0.3214-0.1735 ( 16373 PWs)   bands (ev):

   -49.1113 -49.1112 -49.1109 -49.1109 -48.9891 -48.9891 -21.0651 -21.0628
   -21.0549 -21.0543 -21.0507 -21.0490 -21.0422 -21.0396 -21.0278 -21.0267
   -21.0253 -21.0249 -20.9242 -20.9213 -20.9169 -20.9167 -20.9133 -20.9114
    -4.2369  -4.2260  -1.8322  -1.7666  -1.3127  -1.1965  -0.9170  -0.8843
     0.4839   0.6161   1.2286   1.2435   6.0413   6.1247   6.6035   7.0596
     7.3450   7.9343   8.3881

          k =-0.5000 0.3214-0.6945 ( 16394 PWs)   bands (ev):

   -49.1113 -49.1113 -49.1108 -49.1108 -48.9891 -48.9891 -21.0664 -21.0664
   -21.0544 -21.0544 -21.0506 -21.0506 -21.0377 -21.0377 -21.0273 -21.0273
   -21.0250 -21.0250 -20.9242 -20.9242 -20.9167 -20.9167 -20.9114 -20.9114
    -4.2516  -4.2516  -1.7633  -1.7633  -1.0594  -1.0594  -0.9899  -0.9899
     0.3736   0.3736   1.1976   1.1976   6.0793   6.0793   6.9779   6.9779
     7.8386   7.8386   8.4663

          k =-0.5000-0.4821-0.3472 ( 16420 PWs)   bands (ev):

   -49.1111 -49.1111 -49.1110 -49.1110 -48.9891 -48.9891 -21.0629 -21.0629
   -21.0528 -21.0528 -21.0508 -21.0508 -21.0463 -21.0463 -21.0251 -21.0251
   -21.0244 -21.0244 -20.9207 -20.9207 -20.9168 -20.9168 -20.9139 -20.9139
    -4.1475  -4.1475  -1.5423  -1.5423  -1.4574  -1.4574  -1.3309  -1.3309
     0.8158   0.8158   1.2043   1.2043   6.3485   6.3485   6.5675   6.5675
     7.9577   7.9577   8.3470

          k =-0.5000-0.4821-0.1735 ( 16384 PWs)   bands (ev):

   -49.1112 -49.1112 -49.1109 -49.1109 -48.9891 -48.9891 -21.0653 -21.0653
   -21.0557 -21.0557 -21.0505 -21.0505 -21.0406 -21.0406 -21.0251 -21.0251
   -21.0245 -21.0245 -20.9234 -20.9234 -20.9164 -20.9164 -20.9122 -20.9122
    -4.1640  -4.1640  -1.7645  -1.7645  -1.2125  -1.2125  -1.1351  -1.1351
     0.4703   0.4703   1.2382   1.2382   6.1237   6.1237   7.1109   7.1109
     8.0896   8.0896   8.4892

          k =-0.5000-0.4821-0.6945 ( 16352 PWs)   bands (ev):

   -49.1113 -49.1113 -49.1109 -49.1109 -48.9891 -48.9891 -21.0678 -21.0678
   -21.0555 -21.0555 -21.0515 -21.0515 -21.0367 -21.0367 -21.0252 -21.0252
   -21.0245 -21.0245 -20.9253 -20.9253 -20.9163 -20.9163 -20.9109 -20.9109
    -4.1801  -4.1801  -1.8612  -1.8612  -1.0068  -1.0068  -0.9685  -0.9685
     0.1421   0.1421   1.1986   1.1986   6.0694   6.0694   7.5131   7.5131
     8.2631   8.2632   8.4796

     the Fermi energy is     3.6419 ev

!    total energy              =    -665.33763309 Ry
     estimated scf accuracy    <          6.1E-11 Ry
     smearing contrib. (-TS)   =      -0.00000000 Ry
     internal energy E=F+TS    =    -665.33763309 Ry

     The total energy is F=E-TS. E is the sum of the following terms:
     one-electron contribution =    -482.05582056 Ry
     hartree contribution      =     254.82726405 Ry
     xc contribution           =    -100.22033552 Ry
     ewald contribution        =    -268.55382369 Ry
     one-center paw contrib.   =     -69.33491736 Ry

     convergence has been achieved in   6 iterations

     Forces acting on atoms (cartesian axes, Ry/au):

     atom    1 type  1   force =     0.00000000    0.00000000    0.00000000
     atom    2 type  1   force =     0.00000000    0.00000000    0.00000000
     atom    3 type  3   force =     0.00000000    0.00000000    0.00000000
     atom    4 type  3   force =     0.00000000    0.00000000    0.00000000
     atom    5 type  3   force =    -0.00035313    0.00030516    0.00025188
     atom    6 type  3   force =     0.00035313   -0.00030516   -0.00025188
     atom    7 type  3   force =     0.00035313    0.00030516   -0.00025188
     atom    8 type  3   force =    -0.00035313   -0.00030516    0.00025188
     atom    9 type  2   force =    -0.00019101    0.00059558    0.00022683
     atom   10 type  2   force =     0.00019101   -0.00059558   -0.00022683
     atom   11 type  2   force =     0.00019101    0.00059558   -0.00022683
     atom   12 type  2   force =    -0.00019101   -0.00059558    0.00022683
     atom   13 type  2   force =     0.00058367   -0.00028268   -0.00017411
     atom   14 type  2   force =    -0.00058367    0.00028268    0.00017411
     atom   15 type  2   force =    -0.00058367   -0.00028268    0.00017411
     atom   16 type  2   force =     0.00058367    0.00028268   -0.00017411
     atom   17 type  2   force =    -0.00036680    0.00004400   -0.00069716
     atom   18 type  2   force =     0.00036680   -0.00004400    0.00069716
     atom   19 type  2   force =     0.00036680    0.00004400    0.00069716
     atom   20 type  2   force =    -0.00036680   -0.00004400   -0.00069716

     Total force =     0.002681     Total SCF correction =     0.000004


     Computing stress (Cartesian axis) and pressure

          total   stress  (Ry/bohr**3)                   (kbar)     P=       13.89
   0.00009473   0.00000000   0.00000010           13.93        0.00        0.02
   0.00000000   0.00009335   0.00000000            0.00       13.73        0.00
   0.00000010   0.00000000   0.00009520            0.02        0.00       14.00

     Energy error            =      5.2E-05 Ry
     Gradient error          =      7.0E-04 Ry/Bohr

     bfgs converged in   4 scf cycles and   3 bfgs steps
     (criteria: energy <  1.0E-04 Ry, force <  1.0E-03 Ry/Bohr)

     End of BFGS Geometry Optimization

     Final energy             =    -665.3376330857 Ry

     File temp/na3alh6.bfgs deleted, as requested
Begin final coordinates

ATOMIC_POSITIONS (crystal)
Al            0.5000000000        0.0000000000        0.0000000000
Al            0.5000000000        0.5000000000        0.5000000000
Na           -0.0000000000        0.0000000000        0.5000000000
Na            0.0000000000        0.5000000000        0.0000000000
Na            0.2575387641        0.9529061849        0.2465724682
Na            0.7424612359        0.0470938151        0.7534275318
Na            0.7424612359        0.4529061849        0.2534275318
Na            0.2575387641        0.5470938151        0.7465724682
H             0.4015475728        0.7679252051        0.5631617623
H             0.5984524272        0.2320747949        0.4368382377
H             0.5984524272        0.2679252051        0.9368382377
H             0.4015475728        0.7320747949        0.0631617623
H             0.7291333023        0.8298476525        0.9564502687
H             0.2708666977        0.1701523475        0.0435497313
H             0.2708666977        0.3298476525        0.5435497313
H             0.7291333023        0.6701523475        0.4564502687
H             0.1828129401        0.9522814922        0.7826684429
H             0.8171870599        0.0477185078        0.2173315571
H             0.8171870599        0.4522814922        0.7173315571
H             0.1828129401        0.5477185078        0.2826684429
End final coordinates


 
     init_run     :      0.68s CPU      0.91s WALL (       1 calls)
     electrons    :     26.97s CPU     28.00s WALL (       4 calls)
     update_pot   :      0.50s CPU      0.51s WALL (       3 calls)
     forces       :      0.86s CPU      0.87s WALL (       4 calls)
     stress       :      1.94s CPU      1.95s WALL (       4 calls)

     Called by init_run:
     wfcinit      :      0.33s CPU      0.38s WALL (       1 calls)
     potinit      :      0.17s CPU      0.27s WALL (       1 calls)
     hinit0       :      0.08s CPU      0.15s WALL (       1 calls)

     Called by electrons:
     c_bands      :     22.29s CPU     23.10s WALL (      27 calls)
     sum_band     :      3.45s CPU      3.55s WALL (      27 calls)
     v_of_rho     :      0.16s CPU      0.24s WALL (      28 calls)
     newd         :      0.21s CPU      0.22s WALL (      28 calls)
     PAW_pot      :      1.08s CPU      1.11s WALL (      31 calls)
     mix_rho      :      0.04s CPU      0.05s WALL (      27 calls)

     Called by c_bands:
     init_us_2    :      0.32s CPU      0.35s WALL (    1254 calls)
     init_us_2:cp :      0.31s CPU      0.35s WALL (    1254 calls)
     cegterg      :     20.10s CPU     20.72s WALL (     513 calls)

     Called by *egterg:
     cdiaghg      :      3.55s CPU      3.68s WALL (    1939 calls)
     h_psi        :     14.32s CPU     14.78s WALL (    2072 calls)
     s_psi        :      0.47s CPU      0.48s WALL (    2072 calls)
     g_psi        :      0.05s CPU      0.05s WALL (    1540 calls)

     Called by h_psi:
     h_psi:calbec :      0.90s CPU      0.95s WALL (    2072 calls)
     vloc_psi     :     12.81s CPU     13.21s WALL (    2072 calls)
     add_vuspsi   :      0.52s CPU      0.54s WALL (    2072 calls)

     General routines
     calbec       :      1.39s CPU      1.45s WALL (    3022 calls)
     fft          :      0.15s CPU      0.29s WALL (     462 calls)
     ffts         :      0.02s CPU      0.02s WALL (      55 calls)
     fftw         :     14.01s CPU     14.43s WALL (  133267 calls)
     interpolate  :      0.02s CPU      0.02s WALL (      28 calls)
 
     Parallel routines
 
     PWSCF        :     31.36s CPU     32.83s WALL

 
   This run was terminated on:  19:15:46  31Oct2023            

=------------------------------------------------------------------------------=
   JOB DONE.
=------------------------------------------------------------------------------=
Job execution finished at: Tue Oct 31 19:15:47 IST 2023
