==========================================
SLURM_CLUSTER_NAME = paramganga
SLURM_ARRAY_JOB_ID = 
SLURM_ARRAY_TASK_ID = 
SLURM_ARRAY_TASK_COUNT = 
SLURM_ARRAY_TASK_MAX = 
SLURM_ARRAY_TASK_MIN = 
SLURM_JOB_ACCOUNT = iitr
SLURM_JOB_ID = 174844
SLURM_JOB_NAME = 19280
SLURM_JOB_NODELIST = cn[214-216]
SLURM_JOB_USER = garima.iitr
SLURM_JOB_UID = 38339
SLURM_JOB_PARTITION = small
SLURM_TASK_PID = 17686
SLURM_SUBMIT_DIR = /home/garima.iitr/.cache/.es/compmat/nagah4
SLURM_CPUS_ON_NODE = 48
SLURM_NTASKS = 144
SLURM_TASK_PID = 17686
==========================================
cn214
 
:: initializing oneAPI environment ...
   slurm_script: BASH_VERSION = 4.2.46(2)-release
   args: Using "$@" for setvars.sh arguments: 
:: advisor -- latest
:: ccl -- latest
:: clck -- latest
:: compiler -- latest
:: dal -- latest
:: debugger -- latest
:: dev-utilities -- latest
:: dnnl -- latest
:: dpcpp-ct -- latest
:: dpl -- latest
:: inspector -- latest
:: intelpython -- latest
:: ipp -- latest
:: ippcp -- latest
:: ipp -- latest
:: itac -- latest
:: mkl -- latest
:: mpi -- latest
:: tbb -- latest
:: vpl -- latest
:: vtune -- latest
:: oneAPI environment initialized ::
 
Job execution start: Fri Dec  1 09:20:08 IST 2023
Job submitted by garima.iitr
The job ID is:174844

     Program PWSCF v.7.1 starts on  1Dec2023 at  9:20:11 

     This program is part of the open-source Quantum ESPRESSO suite
     for quantum simulation of materials; please cite
         "P. Giannozzi et al., J. Phys.:Condens. Matter 21 395502 (2009);
         "P. Giannozzi et al., J. Phys.:Condens. Matter 29 465901 (2017);
         "P. Giannozzi et al., J. Chem. Phys. 152 154105 (2020);
          URL http://www.quantum-espresso.org", 
     in publications or presentations arising from this work. More details at
     http://www.quantum-espresso.org/quote

     Parallel version (MPI & OpenMP), running on     144 processor cores
     Number of MPI processes:               144
     Threads/MPI process:                     1

     MPI processes distributed on     3 nodes
     169636 MiB available memory on the printing compute node when the environment starts
 
     Reading input from nagah4.in

     Current dimensions of program PWSCF are:
     Max number of different atomic species (ntypx) = 10
     Max number of k-points (npk) =  40000
     Max angular momentum in pseudopotentials (lmaxx) =  4
     file Ga.pbe-dn-kjpaw_psl.1.0.0.UPF: wavefunction(s)  4S renormalized

     IMPORTANT: XC functional enforced from input :
     Exchange-correlation= PBE
                           (   1   4   3   4   0   0   0)
     Any further DFT definition will be discarded
     Please, verify this is what you really want

     Message from routine setup:
     using ibrav=0 with symmetry is DISCOURAGED, use correct ibrav instead
 
     K-points division:     npool     =       4
     R & G space division:  proc/nbgrp/npool/nimage =      36
     Subspace diagonalization in iterative solution of the eigenvalue problem:
     a serial algorithm will be used

 
     Parallelization info
     --------------------
     sticks:   dense  smooth     PW     G-vecs:    dense   smooth      PW
     Min          65      52     14                 3549     2536     376
     Max          66      53     15                 3555     2542     381
     Sum        2341    1873    519               127907    91433   13621
 
     Using Slab Decomposition
 


     bravais-lattice index     =            0
     lattice parameter (alat)  =      13.1656  a.u.
     unit-cell volume          =    1042.5457 (a.u.)^3
     number of atoms/cell      =           12
     number of atomic types    =            3
     number of electrons       =        52.00
     number of Kohn-Sham states=           31
     kinetic-energy cutoff     =      75.0000  Ry
     charge density cutoff     =     375.0000  Ry
     scf convergence threshold =      1.0E-08
     mixing beta               =       0.7000
     number of iterations used =            8  plain     mixing
     energy convergence thresh.=      1.0E-04
     force convergence thresh. =      1.0E-03
     Exchange-correlation= PBE
                           (   1   4   3   4   0   0   0)
     nstep                     =           50


     celldm(1)=  13.165552  celldm(2)=   0.000000  celldm(3)=   0.000000
     celldm(4)=   0.000000  celldm(5)=   0.000000  celldm(6)=   0.000000

     crystal axes: (cart. coord. in units of alat)
               a(1) = (   0.500000  -0.451541   0.000000 )  
               a(2) = (   0.500000   0.451541   0.000000 )  
               a(3) = (   0.000000   0.000000   1.011767 )  

     reciprocal axes: (cart. coord. in units 2 pi/alat)
               b(1) = (  1.000000 -1.107318  0.000000 )  
               b(2) = (  1.000000  1.107318  0.000000 )  
               b(3) = (  0.000000  0.000000  0.988370 )  


     PseudoPot. # 1 for H  read from file:
     /home/garima.iitr/.cache/.es/compmat/nagah4/H.pbe-rrkjus_psl.1.0.0.UPF
     MD5 check sum: 3f4114867bd07edc7f1424d066fc1888
     Pseudo is Ultrasoft, Zval =  1.0
     Generated using &quot;atomic&quot; code by A. Dal Corso  v.6.3MaX
     Using radial grid of  929 points,  2 beta functions with: 
                l(1) =   0
                l(2) =   0
     Q(r) pseudized with 0 coefficients 


     PseudoPot. # 2 for Ga read from file:
     /home/garima.iitr/.cache/.es/compmat/nagah4/Ga.pbe-dn-kjpaw_psl.1.0.0.UPF
     MD5 check sum: 50ce49cbf7e0a40ad8623bf41840a268
     Pseudo is Projector augmented-wave + core cor, Zval = 13.0
     Generated using &quot;atomic&quot; code by A. Dal Corso  v.6.3
     Shape of augmentation charge: PSQ
     Using radial grid of 1205 points,  6 beta functions with: 
                l(1) =   0
                l(2) =   0
                l(3) =   1
                l(4) =   1
                l(5) =   2
                l(6) =   2
     Q(r) pseudized with 0 coefficients 


     PseudoPot. # 3 for Na read from file:
     /home/garima.iitr/.cache/.es/compmat/nagah4/na_pbe_v1.5.uspp.F.UPF
     MD5 check sum: 44600605ef58000f06b90626533354dc
     Pseudo is Ultrasoft, Zval =  9.0
     Generated by new atomic code, or converted to UPF format
     Using radial grid of  819 points,  5 beta functions with: 
                l(1) =   0
                l(2) =   0
                l(3) =   1
                l(4) =   1
                l(5) =   2
     Q(r) pseudized with  8 coefficients,  rinner =    1.250   1.250   1.250
                                                       1.250   1.250

     atomic species   valence    mass     pseudopotential
        H              1.00     1.00750     H ( 1.00)
        Ga            13.00    69.72300     Ga( 1.00)
        Na             9.00    22.98900     Na( 1.00)

      8 Sym. Ops., with inversion, found ( 4 have fractional translation)



   Cartesian axes

     site n.     atom                  positions (alat units)
         1           Ga  tau(   1) = (   0.5000000  -0.3087903   0.7588249  )
         2           Ga  tau(   2) = (   0.5000000   0.3087903   0.2529416  )
         3           Na  tau(   3) = (   0.5000000  -0.1428599   0.2529416  )
         4           Na  tau(   4) = (   0.5000000   0.1428599   0.7588249  )
         5           H   tau(   5) = (   0.5000000  -0.1716432   0.5776593  )
         6           H   tau(   6) = (   0.5000000  -0.1716432   0.9399905  )
         7           H   tau(   7) = (   0.5000000   0.1716432   0.0717760  )
         8           H   tau(   8) = (   0.5000000   0.1716432   0.4341072  )
         9           H   tau(   9) = (   0.1835444   0.0081447   0.7588249  )
        10           H   tau(  10) = (   0.1835444  -0.0081447   0.2529416  )
        11           H   tau(  11) = (   0.8164556  -0.0081447   0.2529416  )
        12           H   tau(  12) = (   0.8164556   0.0081447   0.7588249  )

     number of k points=    52  Marzari-Vanderbilt smearing, width (Ry)=  0.0050
                       cart. coord. in units 2pi/alat
        k(    1) = (   0.0000000   0.0000000   0.0000000), wk =   0.0092593
        k(    2) = (   0.0000000   0.0000000   0.1647284), wk =   0.0185185
        k(    3) = (   0.0000000   0.0000000   0.3294568), wk =   0.0185185
        k(    4) = (   0.0000000   0.0000000  -0.4941852), wk =   0.0092593
        k(    5) = (   0.1666667   0.1845530   0.0000000), wk =   0.0370370
        k(    6) = (   0.1666667   0.1845530   0.1647284), wk =   0.0740741
        k(    7) = (   0.1666667   0.1845530   0.3294568), wk =   0.0740741
        k(    8) = (   0.1666667   0.1845530  -0.4941852), wk =   0.0370370
        k(    9) = (   0.3333333   0.3691060   0.0000000), wk =   0.0370370
        k(   10) = (   0.3333333   0.3691060   0.1647284), wk =   0.0740741
        k(   11) = (   0.3333333   0.3691060   0.3294568), wk =   0.0740741
        k(   12) = (   0.3333333   0.3691060  -0.4941852), wk =   0.0370370
        k(   13) = (  -0.5000000  -0.5536591   0.0000000), wk =   0.0185185
        k(   14) = (  -0.5000000  -0.5536591   0.1647284), wk =   0.0370370
        k(   15) = (  -0.5000000  -0.5536591   0.3294568), wk =   0.0370370
        k(   16) = (  -0.5000000  -0.5536591  -0.4941852), wk =   0.0185185
        k(   17) = (   0.3333333   0.0000000   0.0000000), wk =   0.0185185
        k(   18) = (   0.3333333   0.0000000   0.1647284), wk =   0.0370370
        k(   19) = (   0.3333333   0.0000000   0.3294568), wk =   0.0370370
        k(   20) = (   0.3333333   0.0000000  -0.4941852), wk =   0.0185185
        k(   21) = (   0.5000000   0.1845530   0.0000000), wk =   0.0370370
        k(   22) = (   0.5000000   0.1845530   0.1647284), wk =   0.0740741
        k(   23) = (   0.5000000   0.1845530   0.3294568), wk =   0.0740741
        k(   24) = (   0.5000000   0.1845530  -0.4941852), wk =   0.0370370
        k(   25) = (  -0.3333333  -0.7382121   0.0000000), wk =   0.0370370
        k(   26) = (  -0.3333333  -0.7382121   0.1647284), wk =   0.0740741
        k(   27) = (  -0.3333333  -0.7382121   0.3294568), wk =   0.0740741
        k(   28) = (  -0.3333333  -0.7382121  -0.4941852), wk =   0.0370370
        k(   29) = (  -0.1666667  -0.5536591   0.0000000), wk =   0.0370370
        k(   30) = (  -0.1666667  -0.5536591   0.1647284), wk =   0.0740741
        k(   31) = (  -0.1666667  -0.5536591   0.3294568), wk =   0.0740741
        k(   32) = (  -0.1666667  -0.5536591  -0.4941852), wk =   0.0370370
        k(   33) = (   0.0000000  -0.3691060   0.0000000), wk =   0.0185185
        k(   34) = (   0.0000000  -0.3691060   0.1647284), wk =   0.0370370
        k(   35) = (   0.0000000  -0.3691060   0.3294568), wk =   0.0370370
        k(   36) = (   0.0000000  -0.3691060  -0.4941852), wk =   0.0185185
        k(   37) = (   0.6666667   0.0000000   0.0000000), wk =   0.0185185
        k(   38) = (   0.6666667   0.0000000   0.1647284), wk =   0.0370370
        k(   39) = (   0.6666667   0.0000000   0.3294568), wk =   0.0370370
        k(   40) = (   0.6666667   0.0000000  -0.4941852), wk =   0.0185185
        k(   41) = (  -0.1666667  -0.9227651   0.0000000), wk =   0.0370370
        k(   42) = (  -0.1666667  -0.9227651   0.1647284), wk =   0.0740741
        k(   43) = (  -0.1666667  -0.9227651   0.3294568), wk =   0.0740741
        k(   44) = (  -0.1666667  -0.9227651  -0.4941852), wk =   0.0370370
        k(   45) = (  -0.0000000  -0.7382121   0.0000000), wk =   0.0185185
        k(   46) = (  -0.0000000  -0.7382121   0.1647284), wk =   0.0370370
        k(   47) = (  -0.0000000  -0.7382121   0.3294568), wk =   0.0370370
        k(   48) = (  -0.0000000  -0.7382121  -0.4941852), wk =   0.0185185
        k(   49) = (  -1.0000000   0.0000000   0.0000000), wk =   0.0092593
        k(   50) = (  -1.0000000   0.0000000   0.1647284), wk =   0.0185185
        k(   51) = (  -1.0000000   0.0000000   0.3294568), wk =   0.0185185
        k(   52) = (  -1.0000000   0.0000000  -0.4941852), wk =   0.0092593

     Dense  grid:   127907 G-vectors     FFT dimensions: (  60,  60,  90)

     Smooth grid:    91433 G-vectors     FFT dimensions: (  50,  50,  80)

     Estimated max dynamical RAM per process >      12.44 MB

     Estimated total dynamical RAM >       1.66 GB

     Initial potential from superposition of free atoms

     starting charge      51.9814, renormalised to      52.0000
     Starting wfcs are   36 randomized atomic wfcs
     Checking if some PAW data can be deallocated... 

     total cpu time spent up to now is        1.0 secs

     Self-consistent Calculation

     iteration #  1     ecut=    75.00 Ry     beta= 0.70
     Davidson diagonalization with overlap
     ethr =  1.00E-02,  avg # of iterations =  4.4

     Threshold (ethr) on eigenvalues was too large:
     Diagonalizing with lowered threshold

     Davidson diagonalization with overlap
     ethr =  8.45E-04,  avg # of iterations =  5.5

     total cpu time spent up to now is        2.0 secs

     total energy              =    -755.87896106 Ry
     estimated scf accuracy    <       0.47554739 Ry

     iteration #  2     ecut=    75.00 Ry     beta= 0.70
     Davidson diagonalization with overlap
     ethr =  9.15E-04,  avg # of iterations =  2.1

     total cpu time spent up to now is        2.4 secs

     total energy              =    -755.92747109 Ry
     estimated scf accuracy    <       0.00826399 Ry

     iteration #  3     ecut=    75.00 Ry     beta= 0.70
     Davidson diagonalization with overlap
     ethr =  1.59E-05,  avg # of iterations = 14.5

     total cpu time spent up to now is        3.5 secs

     total energy              =    -755.96331686 Ry
     estimated scf accuracy    <       0.00530409 Ry

     iteration #  4     ecut=    75.00 Ry     beta= 0.70
     Davidson diagonalization with overlap
     ethr =  1.02E-05,  avg # of iterations =  1.8

     total cpu time spent up to now is        3.9 secs

     total energy              =    -755.96349104 Ry
     estimated scf accuracy    <       0.00201633 Ry

     iteration #  5     ecut=    75.00 Ry     beta= 0.70
     Davidson diagonalization with overlap
     ethr =  3.88E-06,  avg # of iterations =  4.8

     total cpu time spent up to now is        4.5 secs

     total energy              =    -755.96363096 Ry
     estimated scf accuracy    <       0.00000842 Ry

     iteration #  6     ecut=    75.00 Ry     beta= 0.70
     Davidson diagonalization with overlap
     c_bands:  1 eigenvalues not converged
     ethr =  1.62E-08,  avg # of iterations = 18.2

     total cpu time spent up to now is        6.7 secs

     total energy              =    -755.96382745 Ry
     estimated scf accuracy    <       0.00000439 Ry

     iteration #  7     ecut=    75.00 Ry     beta= 0.70
     Davidson diagonalization with overlap
     ethr =  8.45E-09,  avg # of iterations =  2.2

     total cpu time spent up to now is        7.1 secs

     total energy              =    -755.96382553 Ry
     estimated scf accuracy    <       0.00000559 Ry

     iteration #  8     ecut=    75.00 Ry     beta= 0.70
     Davidson diagonalization with overlap
     ethr =  8.45E-09,  avg # of iterations =  2.2

     total cpu time spent up to now is        7.5 secs

     total energy              =    -755.96382565 Ry
     estimated scf accuracy    <       0.00000053 Ry

     iteration #  9     ecut=    75.00 Ry     beta= 0.70
     Davidson diagonalization with overlap
     ethr =  1.01E-09,  avg # of iterations =  7.8

     total cpu time spent up to now is        8.4 secs

     total energy              =    -755.96382620 Ry
     estimated scf accuracy    <       0.00000028 Ry

     iteration # 10     ecut=    75.00 Ry     beta= 0.70
     Davidson diagonalization with overlap
     ethr =  5.34E-10,  avg # of iterations =  2.6

     total cpu time spent up to now is        8.8 secs

     total energy              =    -755.96382615 Ry
     estimated scf accuracy    <       0.00000036 Ry

     iteration # 11     ecut=    75.00 Ry     beta= 0.70
     Davidson diagonalization with overlap
     ethr =  5.34E-10,  avg # of iterations =  1.0

     total cpu time spent up to now is        9.2 secs

     total energy              =    -755.96382615 Ry
     estimated scf accuracy    <       0.00000011 Ry

     iteration # 12     ecut=    75.00 Ry     beta= 0.70
     Davidson diagonalization with overlap
     ethr =  2.08E-10,  avg # of iterations =  2.2

     total cpu time spent up to now is        9.6 secs

     total energy              =    -755.96382615 Ry
     estimated scf accuracy    <       0.00000004 Ry

     iteration # 13     ecut=    75.00 Ry     beta= 0.70
     Davidson diagonalization with overlap
     ethr =  7.13E-11,  avg # of iterations =  5.9

     total cpu time spent up to now is       10.2 secs

     End of self-consistent calculation

          k = 0.0000 0.0000 0.0000 ( 11443 PWs)   bands (ev):

   -50.0482 -50.0480 -21.9702 -21.9689 -21.9687 -21.9685 -21.9682 -21.9608
   -12.2444 -12.2438 -12.2419 -12.2374 -12.2276 -12.2251 -12.0976 -12.0950
   -12.0822 -12.0804  -6.5335  -5.5670  -2.0155  -0.8276  -0.7264  -0.6382
    -0.2622  -0.2120   4.7420   5.0879   5.7832   6.2926   6.4704

          k = 0.0000 0.0000 0.1647 ( 11427 PWs)   bands (ev):

   -50.0482 -50.0480 -21.9703 -21.9698 -21.9684 -21.9682 -21.9673 -21.9612
   -12.2443 -12.2436 -12.2421 -12.2382 -12.2271 -12.2250 -12.0974 -12.0952
   -12.0821 -12.0805  -6.4828  -5.6536  -1.8921  -0.8077  -0.7217  -0.6147
    -0.3497  -0.2891   4.8763   5.1384   5.5358   6.1598   6.7405

          k = 0.0000 0.0000 0.3295 ( 11427 PWs)   bands (ev):

   -50.0482 -50.0481 -21.9704 -21.9704 -21.9684 -21.9682 -21.9656 -21.9622
   -12.2438 -12.2431 -12.2426 -12.2400 -12.2260 -12.2249 -12.0969 -12.0957
   -12.0817 -12.0808  -6.3374  -5.8668  -1.5692  -0.7633  -0.7250  -0.6901
    -0.5491  -0.3614   5.1284   5.2912   5.3098   5.8592   6.7214

          k = 0.0000 0.0000-0.4942 ( 11420 PWs)   bands (ev):

   -50.0481 -50.0481 -21.9705 -21.9705 -21.9683 -21.9683 -21.9638 -21.9638
   -12.2432 -12.2432 -12.2418 -12.2418 -12.2252 -12.2252 -12.0963 -12.0963
   -12.0813 -12.0813  -6.1181  -6.1181  -1.1413  -1.1413  -0.7261  -0.7261
    -0.4569  -0.4569   5.2386   5.2386   5.5416   5.5416   7.0291

          k = 0.1667 0.1846 0.0000 ( 11432 PWs)   bands (ev):

   -50.0482 -50.0480 -21.9706 -21.9694 -21.9686 -21.9686 -21.9683 -21.9608
   -12.2436 -12.2425 -12.2401 -12.2380 -12.2271 -12.2245 -12.0976 -12.0949
   -12.0827 -12.0802  -6.4148  -5.5169  -1.9066  -1.4199  -0.7668  -0.6044
    -0.3609  -0.3317   4.7531   5.6142   5.8670   6.4528   6.6826

          k = 0.1667 0.1846 0.1647 ( 11429 PWs)   bands (ev):

   -50.0482 -50.0480 -21.9706 -21.9701 -21.9687 -21.9684 -21.9673 -21.9612
   -12.2435 -12.2424 -12.2403 -12.2388 -12.2266 -12.2244 -12.0974 -12.0950
   -12.0826 -12.0803  -6.3663  -5.5940  -1.8437  -1.3534  -0.8166  -0.6032
    -0.3884  -0.3709   4.8778   5.6940   5.7232   6.4638   6.5616

          k = 0.1667 0.1846 0.3295 ( 11449 PWs)   bands (ev):

   -50.0482 -50.0481 -21.9708 -21.9707 -21.9687 -21.9685 -21.9655 -21.9622
   -12.2431 -12.2419 -12.2408 -12.2404 -12.2254 -12.2242 -12.0969 -12.0955
   -12.0821 -12.0808  -6.2277  -5.7875  -1.6728  -1.2737  -0.8942  -0.5678
    -0.5226  -0.4156   5.1553   5.5425   5.9182   6.2798   6.4543

          k = 0.1667 0.1846-0.4942 ( 11436 PWs)   bands (ev):

   -50.0481 -50.0481 -21.9709 -21.9709 -21.9686 -21.9686 -21.9638 -21.9638
   -12.2421 -12.2421 -12.2413 -12.2413 -12.2245 -12.2245 -12.0962 -12.0962
   -12.0814 -12.0814  -6.0208  -6.0208  -1.4405  -1.4405  -0.7442  -0.7442
    -0.4810  -0.4810   5.3977   5.3977   6.0844   6.0846   6.7254

          k = 0.3333 0.3691 0.0000 ( 11432 PWs)   bands (ev):

   -50.0482 -50.0480 -21.9714 -21.9708 -21.9687 -21.9685 -21.9684 -21.9609
   -12.2428 -12.2395 -12.2390 -12.2372 -12.2255 -12.2230 -12.0974 -12.0945
   -12.0836 -12.0800  -6.1080  -5.4517  -2.1734  -1.6046  -1.2713  -0.6610
    -0.6258  -0.3274   5.0430   5.6877   6.4590   6.5233   7.1711

          k = 0.3333 0.3691 0.1647 ( 11430 PWs)   bands (ev):

   -50.0482 -50.0480 -21.9715 -21.9711 -21.9689 -21.9686 -21.9672 -21.9612
   -12.2429 -12.2402 -12.2388 -12.2372 -12.2249 -12.2228 -12.0972 -12.0947
   -12.0833 -12.0803  -6.0677  -5.4985  -2.2201  -1.6487  -1.2139  -0.6417
    -0.5699  -0.3349   5.0928   5.7664   6.2856   6.4272   7.2192

          k = 0.3333 0.3691 0.3295 ( 11443 PWs)   bands (ev):

   -50.0481 -50.0480 -21.9718 -21.9716 -21.9689 -21.9687 -21.9655 -21.9622
   -12.2431 -12.2416 -12.2385 -12.2375 -12.2238 -12.2226 -12.0967 -12.0952
   -12.0827 -12.0809  -5.9547  -5.6253  -2.2284  -1.8766  -0.9665  -0.6342
    -0.4966  -0.3576   5.2563   5.8771   6.0834   6.1895   7.2656

          k = 0.3333 0.3691-0.4942 ( 11432 PWs)   bands (ev):

   -50.0481 -50.0481 -21.9718 -21.9718 -21.9688 -21.9688 -21.9637 -21.9637
   -12.2427 -12.2427 -12.2380 -12.2380 -12.2229 -12.2229 -12.0960 -12.0960
   -12.0818 -12.0818  -5.7936  -5.7936  -2.1057  -2.1057  -0.7382  -0.7382
    -0.4185  -0.4185   5.5533   5.5533   6.1357   6.1358   7.3969

          k =-0.5000-0.5537 0.0000 ( 11426 PWs)   bands (ev):

   -50.0482 -50.0480 -21.9719 -21.9715 -21.9686 -21.9686 -21.9682 -21.9609
   -12.2416 -12.2411 -12.2374 -12.2361 -12.2243 -12.2221 -12.0973 -12.0944
   -12.0840 -12.0800  -5.8647  -5.4915  -2.4739  -1.5885  -1.2782  -1.0036
    -0.6039  -0.3051   5.2948   5.8944   6.1381   6.5279   7.1934

          k =-0.5000-0.5537 0.1647 ( 11448 PWs)   bands (ev):

   -50.0482 -50.0480 -21.9720 -21.9718 -21.9690 -21.9686 -21.9671 -21.9613
   -12.2420 -12.2416 -12.2373 -12.2361 -12.2238 -12.2219 -12.0971 -12.0946
   -12.0837 -12.0802  -5.8356  -5.5094  -2.5102  -1.8649  -1.0337  -0.9227
    -0.5681  -0.3137   5.3425   5.8816   5.8950   6.5278   7.5055

          k =-0.5000-0.5537 0.3295 ( 11426 PWs)   bands (ev):

   -50.0481 -50.0480 -21.9722 -21.9722 -21.9690 -21.9687 -21.9654 -21.9622
   -12.2427 -12.2425 -12.2369 -12.2362 -12.2227 -12.2216 -12.0966 -12.0951
   -12.0829 -12.0810  -5.7575  -5.5656  -2.5359  -2.2052  -0.7974  -0.7883
    -0.4692  -0.3347   5.4374   5.6029   5.9381   6.3569   7.6918

          k =-0.5000-0.5537-0.4942 ( 11416 PWs)   bands (ev):

   -50.0481 -50.0481 -21.9724 -21.9724 -21.9689 -21.9689 -21.9637 -21.9637
   -12.2430 -12.2430 -12.2365 -12.2365 -12.2218 -12.2218 -12.0958 -12.0958
   -12.0819 -12.0819  -5.6563  -5.6563  -2.4426  -2.4426  -0.7262  -0.7262
    -0.3752  -0.3752   5.4934   5.4934   6.1046   6.1046   7.8885

          k = 0.3333 0.0000 0.0000 ( 11448 PWs)   bands (ev):

   -50.0482 -50.0480 -21.9707 -21.9694 -21.9691 -21.9686 -21.9685 -21.9608
   -12.2441 -12.2406 -12.2382 -12.2379 -12.2271 -12.2234 -12.0980 -12.0952
   -12.0831 -12.0801  -6.3292  -5.4463  -1.8618  -1.4607  -1.1032  -0.6058
    -0.5994  -0.3084   4.8449   5.7780   5.8961   6.4669   6.6455

          k = 0.3333 0.0000 0.1647 ( 11431 PWs)   bands (ev):

   -50.0482 -50.0480 -21.9708 -21.9701 -21.9691 -21.9687 -21.9673 -21.9612
   -12.2439 -12.2404 -12.2386 -12.2383 -12.2265 -12.2235 -12.0978 -12.0954
   -12.0829 -12.0803  -6.2815  -5.5220  -1.7750  -1.4289  -1.0926  -0.6557
    -0.6156  -0.3726   4.9974   5.7211   5.9171   6.5161   6.9368

          k = 0.3333 0.0000 0.3295 ( 11435 PWs)   bands (ev):

   -50.0482 -50.0480 -21.9709 -21.9707 -21.9691 -21.9688 -21.9655 -21.9622
   -12.2433 -12.2403 -12.2400 -12.2388 -12.2253 -12.2236 -12.0973 -12.0959
   -12.0824 -12.0809  -6.1449  -5.7119  -1.5467  -1.3455  -1.1043  -0.8673
    -0.6067  -0.4692   5.3546   5.6964   6.0275   6.4839   7.0959

          k = 0.3333 0.0000-0.4942 ( 11414 PWs)   bands (ev):

   -50.0481 -50.0481 -21.9710 -21.9710 -21.9689 -21.9689 -21.9637 -21.9637
   -12.2420 -12.2420 -12.2394 -12.2394 -12.2242 -12.2242 -12.0966 -12.0966
   -12.0816 -12.0816  -5.9412  -5.9412  -1.2965  -1.2965  -1.1256  -1.1256
    -0.5469  -0.5469   5.6614   5.6614   6.2153   6.2154   6.9810

          k = 0.5000 0.1846 0.0000 ( 11443 PWs)   bands (ev):

   -50.0482 -50.0480 -21.9714 -21.9706 -21.9692 -21.9690 -21.9683 -21.9609
   -12.2440 -12.2387 -12.2368 -12.2349 -12.2261 -12.2220 -12.0982 -12.0952
   -12.0840 -12.0799  -6.0551  -5.3494  -2.0912  -1.6326  -1.3096  -0.9135
    -0.6878  -0.5128   5.0840   5.7044   5.9841   6.4710   7.1502

          k = 0.5000 0.1846 0.1647 ( 11449 PWs)   bands (ev):

   -50.0482 -50.0480 -21.9715 -21.9709 -21.9694 -21.9690 -21.9672 -21.9612
   -12.2439 -12.2394 -12.2367 -12.2350 -12.2255 -12.2220 -12.0980 -12.0954
   -12.0838 -12.0802  -6.0135  -5.4030  -2.1102  -1.6037  -1.3098  -0.8876
    -0.6984  -0.5352   5.1792   5.7522   6.0646   6.6471   6.8618

          k = 0.5000 0.1846 0.3295 ( 11440 PWs)   bands (ev):

   -50.0481 -50.0480 -21.9717 -21.9714 -21.9695 -21.9692 -21.9655 -21.9622
   -12.2435 -12.2409 -12.2363 -12.2353 -12.2243 -12.2223 -12.0974 -12.0959
   -12.0830 -12.0809  -5.8960  -5.5443  -2.0780  -1.7376  -1.1446  -0.8376
    -0.7324  -0.6088   5.4325   5.9865   6.1585   6.6139   6.9672

          k = 0.5000 0.1846-0.4942 ( 11436 PWs)   bands (ev):

   -50.0481 -50.0481 -21.9717 -21.9717 -21.9693 -21.9693 -21.9637 -21.9637
   -12.2424 -12.2424 -12.2358 -12.2358 -12.2230 -12.2230 -12.0967 -12.0967
   -12.0820 -12.0820  -5.7262  -5.7262  -1.9400  -1.9400  -0.9308  -0.9308
    -0.6972  -0.6972   5.8066   5.8066   6.4372   6.4372   7.0718

          k =-0.3333-0.7382 0.0000 ( 11454 PWs)   bands (ev):

   -50.0482 -50.0480 -21.9719 -21.9713 -21.9692 -21.9690 -21.9682 -21.9610
   -12.2430 -12.2401 -12.2350 -12.2338 -12.2251 -12.2214 -12.0979 -12.0948
   -12.0845 -12.0798  -5.7907  -5.3995  -2.4012  -1.5914  -1.3051  -0.9751
    -0.8849  -0.6674   5.3435   5.9569   6.0085   6.4396   7.0322

          k =-0.3333-0.7382 0.1647 ( 11440 PWs)   bands (ev):

   -50.0482 -50.0480 -21.9720 -21.9716 -21.9695 -21.9691 -21.9672 -21.9613
   -12.2432 -12.2406 -12.2349 -12.2338 -12.2245 -12.2213 -12.0977 -12.0950
   -12.0842 -12.0801  -5.7613  -5.4198  -2.4278  -1.8141  -1.1113  -0.9972
    -0.7861  -0.6732   5.3683   5.8573   6.0248   6.5995   7.0990

          k =-0.3333-0.7382 0.3295 ( 11431 PWs)   bands (ev):

   -50.0481 -50.0480 -21.9722 -21.9721 -21.9695 -21.9692 -21.9654 -21.9622
   -12.2433 -12.2419 -12.2346 -12.2339 -12.2233 -12.2214 -12.0971 -12.0955
   -12.0833 -12.0810  -5.6819  -5.4815  -2.4381  -2.1155  -0.9668  -0.8941
    -0.7343  -0.6308   5.4560   5.8153   6.1681   6.6479   7.1649

          k =-0.3333-0.7382-0.4942 ( 11426 PWs)   bands (ev):

   -50.0481 -50.0481 -21.9723 -21.9723 -21.9694 -21.9694 -21.9637 -21.9637
   -12.2429 -12.2429 -12.2342 -12.2342 -12.2221 -12.2221 -12.0963 -12.0963
   -12.0821 -12.0821  -5.5774  -5.5774  -2.3396  -2.3396  -0.8965  -0.8965
    -0.6464  -0.6464   5.6628   5.6628   6.4450   6.4450   7.2220

          k =-0.1667-0.5537 0.0000 ( 11420 PWs)   bands (ev):

   -50.0482 -50.0480 -21.9715 -21.9708 -21.9693 -21.9689 -21.9683 -21.9609
   -12.2417 -12.2410 -12.2366 -12.2348 -12.2260 -12.2228 -12.0974 -12.0944
   -12.0842 -12.0798  -5.9588  -5.4272  -2.1311  -1.4152  -1.2964  -1.1055
    -0.8350  -0.6101   5.3279   5.9752   6.6343   6.7139   7.3772

          k =-0.1667-0.5537 0.1647 ( 11428 PWs)   bands (ev):

   -50.0482 -50.0480 -21.9716 -21.9712 -21.9695 -21.9690 -21.9672 -21.9613
   -12.2420 -12.2415 -12.2365 -12.2349 -12.2253 -12.2226 -12.0972 -12.0946
   -12.0839 -12.0800  -5.9233  -5.4609  -2.1766  -1.6067  -1.2247  -0.9974
    -0.7703  -0.5882   5.4125   5.9456   6.3000   7.1200   7.1745

          k =-0.1667-0.5537 0.3295 ( 11422 PWs)   bands (ev):

   -50.0481 -50.0480 -21.9718 -21.9717 -21.9695 -21.9691 -21.9654 -21.9622
   -12.2427 -12.2424 -12.2361 -12.2352 -12.2240 -12.2224 -12.0966 -12.0951
   -12.0831 -12.0809  -5.8255  -5.5562  -2.2048  -1.8892  -1.1286  -0.9117
    -0.6603  -0.5073   5.6109   5.8684   6.1989   6.7838   7.2293

          k =-0.1667-0.5537-0.4942 ( 11436 PWs)   bands (ev):

   -50.0481 -50.0481 -21.9719 -21.9719 -21.9693 -21.9693 -21.9637 -21.9637
   -12.2430 -12.2430 -12.2357 -12.2357 -12.2229 -12.2229 -12.0959 -12.0959
   -12.0820 -12.0820  -5.6904  -5.6904  -2.1095  -2.1095  -1.0086  -1.0086
    -0.5166  -0.5166   5.7932   5.7932   6.3227   6.3227   7.4539

          k = 0.0000-0.3691 0.0000 ( 11429 PWs)   bands (ev):

   -50.0482 -50.0480 -21.9708 -21.9697 -21.9692 -21.9686 -21.9685 -21.9609
   -12.2426 -12.2404 -12.2393 -12.2381 -12.2268 -12.2244 -12.0973 -12.0944
   -12.0834 -12.0799  -6.2708  -5.4838  -1.7456  -1.5725  -1.1020  -0.6635
    -0.5853  -0.5283   5.0587   5.9877   6.0652   7.0107   7.2217

          k = 0.0000-0.3691 0.1647 ( 11427 PWs)   bands (ev):

   -50.0482 -50.0480 -21.9709 -21.9704 -21.9692 -21.9686 -21.9673 -21.9612
   -12.2428 -12.2402 -12.2400 -12.2383 -12.2262 -12.2241 -12.0971 -12.0946
   -12.0831 -12.0801  -6.2259  -5.5464  -1.8199  -1.4386  -1.0710  -0.7930
    -0.6241  -0.4234   5.2090   6.0057   6.0269   6.7631   6.9541

          k = 0.0000-0.3691 0.3295 ( 11413 PWs)   bands (ev):

   -50.0481 -50.0480 -21.9711 -21.9710 -21.9690 -21.9687 -21.9655 -21.9622
   -12.2430 -12.2414 -12.2398 -12.2387 -12.2250 -12.2238 -12.0965 -12.0951
   -12.0825 -12.0808  -6.0986  -5.7086  -1.8047  -1.4602  -0.9840  -0.7398
    -0.7267  -0.3982   5.6092   5.9513   6.1476   6.3654   6.6253

          k = 0.0000-0.3691-0.4942 ( 11434 PWs)   bands (ev):

   -50.0481 -50.0481 -21.9712 -21.9712 -21.9689 -21.9689 -21.9637 -21.9637
   -12.2426 -12.2426 -12.2393 -12.2393 -12.2240 -12.2240 -12.0958 -12.0958
   -12.0816 -12.0816  -5.9122  -5.9122  -1.6582  -1.6582  -0.8592  -0.8592
    -0.5249  -0.5249   5.9906   5.9909   6.2812   6.2819   6.3505

          k = 0.6667 0.0000 0.0000 ( 11464 PWs)   bands (ev):

   -50.0482 -50.0480 -21.9717 -21.9705 -21.9703 -21.9696 -21.9681 -21.9609
   -12.2447 -12.2388 -12.2326 -12.2305 -12.2265 -12.2207 -12.0989 -12.0957
   -12.0850 -12.0797  -5.8372  -5.1931  -2.0959  -1.5353  -1.5143  -1.4070
    -1.1444  -0.4895   4.8273   5.1991   5.8200   6.7560   6.9447

          k = 0.6667 0.0000 0.1647 ( 11462 PWs)   bands (ev):

   -50.0482 -50.0480 -21.9717 -21.9709 -21.9704 -21.9697 -21.9672 -21.9613
   -12.2445 -12.2394 -12.2325 -12.2307 -12.2259 -12.2209 -12.0987 -12.0959
   -12.0846 -12.0800  -5.7986  -5.2411  -2.0552  -1.5808  -1.4994  -1.4083
    -1.1146  -0.5684   5.0387   5.2507   6.0087   6.8545   6.9456

          k = 0.6667 0.0000 0.3295 ( 11441 PWs)   bands (ev):

   -50.0481 -50.0480 -21.9718 -21.9715 -21.9703 -21.9699 -21.9654 -21.9622
   -12.2438 -12.2409 -12.2321 -12.2311 -12.2245 -12.2217 -12.0981 -12.0965
   -12.0836 -12.0810  -5.6900  -5.3687  -1.9408  -1.6170  -1.5515  -1.4279
    -1.0237  -0.7423   5.5068   5.5868   6.4556   6.7965   6.8501

          k = 0.6667 0.0000-0.4942 ( 11446 PWs)   bands (ev):

   -50.0481 -50.0481 -21.9718 -21.9718 -21.9701 -21.9701 -21.9637 -21.9637
   -12.2425 -12.2425 -12.2316 -12.2316 -12.2229 -12.2229 -12.0973 -12.0973
   -12.0823 -12.0823  -5.5341  -5.5341  -1.7772  -1.7772  -1.4891  -1.4891
    -0.9036  -0.9036   5.9812   5.9812   6.4245   6.4246   6.9492

          k =-0.1667-0.9228 0.0000 ( 11444 PWs)   bands (ev):

   -50.0482 -50.0480 -21.9720 -21.9711 -21.9703 -21.9698 -21.9680 -21.9610
   -12.2444 -12.2394 -12.2305 -12.2290 -12.2262 -12.2203 -12.0989 -12.0956
   -12.0855 -12.0796  -5.6212  -5.1871  -2.2531  -1.7683  -1.5453  -1.3172
    -1.2186  -0.6768   4.7118   5.2801   5.6235   6.2987   7.3918

          k =-0.1667-0.9228 0.1647 ( 11447 PWs)   bands (ev):

   -50.0482 -50.0480 -21.9720 -21.9713 -21.9706 -21.9698 -21.9671 -21.9613
   -12.2443 -12.2400 -12.2304 -12.2291 -12.2256 -12.2205 -12.0987 -12.0958
   -12.0851 -12.0799  -5.5912  -5.2135  -2.2462  -1.7918  -1.5844  -1.3022
    -1.2020  -0.6991   4.8602   5.2894   5.9395   6.4650   7.3240

          k =-0.1667-0.9228 0.3295 ( 11429 PWs)   bands (ev):

   -50.0481 -50.0480 -21.9722 -21.9719 -21.9705 -21.9700 -21.9654 -21.9622
   -12.2439 -12.2414 -12.2300 -12.2293 -12.2242 -12.2212 -12.0980 -12.0963
   -12.0840 -12.0810  -5.5089  -5.2889  -2.2013  -1.9155  -1.5754  -1.3677
    -1.0794  -0.7798   5.2552   5.6115   6.4167   6.6887   7.1565

          k =-0.1667-0.9228-0.4942 ( 11424 PWs)   bands (ev):

   -50.0481 -50.0481 -21.9722 -21.9722 -21.9703 -21.9703 -21.9637 -21.9637
   -12.2428 -12.2428 -12.2296 -12.2296 -12.2225 -12.2225 -12.0972 -12.0972
   -12.0825 -12.0825  -5.3973  -5.3973  -2.0850  -2.0850  -1.4795  -1.4795
    -0.9186  -0.9186   5.8262   5.8262   6.3244   6.3244   7.3910

          k =-0.0000-0.7382 0.0000 ( 11416 PWs)   bands (ev):

   -50.0482 -50.0480 -21.9718 -21.9706 -21.9705 -21.9695 -21.9681 -21.9610
   -12.2431 -12.2403 -12.2323 -12.2305 -12.2267 -12.2214 -12.0981 -12.0949
   -12.0851 -12.0795  -5.6923  -5.3228  -2.0585  -1.7818  -1.3386  -1.1887
    -1.1298  -0.9309   4.9308   5.9173   6.0612   6.4076   7.4783

          k =-0.0000-0.7382 0.1647 ( 11440 PWs)   bands (ev):

   -50.0482 -50.0480 -21.9718 -21.9711 -21.9705 -21.9696 -21.9671 -21.9613
   -12.2433 -12.2409 -12.2322 -12.2306 -12.2260 -12.2215 -12.0979 -12.0951
   -12.0847 -12.0799  -5.6644  -5.3422  -2.0962  -1.7441  -1.5849  -1.1810
    -0.9834  -0.8468   5.0337   5.7522   6.4910   6.5503   7.2024

          k =-0.0000-0.7382 0.3295 ( 11433 PWs)   bands (ev):

   -50.0481 -50.0480 -21.9720 -21.9718 -21.9703 -21.9698 -21.9654 -21.9622
   -12.2434 -12.2420 -12.2318 -12.2309 -12.2244 -12.2218 -12.0973 -12.0957
   -12.0837 -12.0809  -5.5894  -5.4007  -2.1294  -1.8644  -1.6376  -1.3143
    -0.7930  -0.7143   5.2905   5.9793   6.4543   6.9198   6.9254

          k =-0.0000-0.7382-0.4942 ( 11418 PWs)   bands (ev):

   -50.0481 -50.0481 -21.9721 -21.9721 -21.9700 -21.9700 -21.9637 -21.9637
   -12.2430 -12.2430 -12.2314 -12.2314 -12.2228 -12.2228 -12.0965 -12.0965
   -12.0823 -12.0823  -5.4910  -5.4910  -2.0586  -2.0586  -1.4825  -1.4825
    -0.6896  -0.6896   5.7499   5.7499   6.5665   6.5665   7.3404

          k =-1.0000 0.0000 0.0000 ( 11478 PWs)   bands (ev):

   -50.0482 -50.0480 -21.9721 -21.9712 -21.9707 -21.9700 -21.9679 -21.9610
   -12.2450 -12.2392 -12.2283 -12.2268 -12.2266 -12.2197 -12.0994 -12.0959
   -12.0859 -12.0795  -5.5220  -5.0607  -2.1912  -2.0552  -1.7105  -1.3616
    -1.3140  -0.5748   4.5152   4.9765   5.1895   5.9951   8.6440

          k =-1.0000 0.0000 0.1647 ( 11466 PWs)   bands (ev):

   -50.0482 -50.0480 -21.9722 -21.9712 -21.9711 -21.9701 -21.9671 -21.9613
   -12.2448 -12.2398 -12.2282 -12.2267 -12.2262 -12.2200 -12.0992 -12.0961
   -12.0855 -12.0799  -5.4916  -5.0913  -2.1566  -2.0156  -1.7424  -1.4169
    -1.2947  -0.6657   4.7337   5.0112   5.5014   6.1697   8.3438

          k =-1.0000 0.0000 0.3295 ( 11428 PWs)   bands (ev):

   -50.0481 -50.0480 -21.9723 -21.9719 -21.9709 -21.9703 -21.9654 -21.9622
   -12.2441 -12.2413 -12.2279 -12.2270 -12.2245 -12.2210 -12.0985 -12.0967
   -12.0843 -12.0811  -5.4079  -5.1758  -2.0626  -1.9033  -1.8235  -1.5598
    -1.2297  -0.8757   5.2864   5.3254   6.1429   6.6565   7.6120

          k =-1.0000 0.0000-0.4942 ( 11408 PWs)   bands (ev):

   -50.0481 -50.0481 -21.9722 -21.9722 -21.9706 -21.9706 -21.9637 -21.9637
   -12.2428 -12.2428 -12.2274 -12.2274 -12.2226 -12.2226 -12.0976 -12.0976
   -12.0827 -12.0827  -5.2921  -5.2921  -1.9386  -1.9386  -1.7390  -1.7390
    -1.0889  -1.0889   5.6975   5.6975   6.7440   6.7440   7.2389

     the Fermi energy is     1.8177 ev

!    total energy              =    -755.96382616 Ry
     estimated scf accuracy    <          1.4E-09 Ry
     smearing contrib. (-TS)   =       0.00000000 Ry
     internal energy E=F+TS    =    -755.96382616 Ry

     The total energy is F=E-TS. E is the sum of the following terms:
     one-electron contribution =    -441.25077921 Ry
     hartree contribution      =     246.92066213 Ry
     xc contribution           =    -110.77301836 Ry
     ewald contribution        =    -228.15112852 Ry
     one-center paw contrib.   =    -222.70956221 Ry

     convergence has been achieved in  13 iterations

     Forces acting on atoms (cartesian axes, Ry/au):

     atom    1 type  2   force =     0.00000000    0.00006446    0.00000000
     atom    2 type  2   force =     0.00000000   -0.00006446    0.00000000
     atom    3 type  3   force =     0.00000000    0.00060552    0.00000000
     atom    4 type  3   force =     0.00000000   -0.00060552    0.00000000
     atom    5 type  1   force =     0.00000000    0.00290116   -0.00452791
     atom    6 type  1   force =     0.00000000    0.00290116    0.00452791
     atom    7 type  1   force =     0.00000000   -0.00290116   -0.00452791
     atom    8 type  1   force =     0.00000000   -0.00290116    0.00452791
     atom    9 type  1   force =     0.00446182   -0.00264719    0.00000000
     atom   10 type  1   force =     0.00446182    0.00264719    0.00000000
     atom   11 type  1   force =    -0.00446182    0.00264719    0.00000000
     atom   12 type  1   force =    -0.00446182   -0.00264719    0.00000000

     Total force =     0.014969     Total SCF correction =     0.000044


     Computing stress (Cartesian axis) and pressure

          total   stress  (Ry/bohr**3)                   (kbar)     P=       13.92
   0.00008774   0.00000000   0.00000000           12.91        0.00        0.00
   0.00000000   0.00010460   0.00000000            0.00       15.39        0.00
   0.00000000   0.00000000   0.00009150            0.00        0.00       13.46


     BFGS Geometry Optimization
     Energy error            =      0.0E+00 Ry
     Gradient error          =      4.5E-03 Ry/Bohr

     number of scf cycles    =   1
     number of bfgs steps    =   0

     energy             new  =    -755.9638261576 Ry

     new trust radius        =       0.0053776131 bohr
     new conv_thr            =       0.0000000100 Ry


ATOMIC_POSITIONS (crystal)
Ga            0.8419236483        0.1580763517        0.7500000000
Ga            0.1580763517        0.8419236483        0.2500000000
Na            0.6581404814        0.3418595186        0.2500000000
Na            0.3418595186        0.6581404814        0.7500000000
H             0.6898196213        0.3101803787        0.5706013785
H             0.6898196213        0.3101803787        0.9293986215
H             0.3101803787        0.6898196213        0.0706013785
H             0.3101803787        0.6898196213        0.4293986215
H             0.1750872293        0.1926794533        0.7500000000
H             0.1926794533        0.1750872293        0.2500000000
H             0.8249127707        0.8073205467        0.2500000000
H             0.8073205467        0.8249127707        0.7500000000



     Writing config-only to output data dir ./nagah4.save/
     NEW-OLD atomic charge density approx. for the potential

     total cpu time spent up to now is       10.8 secs

     Self-consistent Calculation

     iteration #  1     ecut=    75.00 Ry     beta= 0.70
     Davidson diagonalization with overlap
     ethr =  1.00E-06,  avg # of iterations =  2.0

     Threshold (ethr) on eigenvalues was too large:
     Diagonalizing with lowered threshold

     Davidson diagonalization with overlap
     ethr =  2.35E-08,  avg # of iterations =  4.3

     total cpu time spent up to now is       11.7 secs

     total energy              =    -755.96401633 Ry
     estimated scf accuracy    <       0.00001604 Ry

     iteration #  2     ecut=    75.00 Ry     beta= 0.70
     Davidson diagonalization with overlap
     ethr =  3.08E-08,  avg # of iterations =  2.3

     total cpu time spent up to now is       12.2 secs

     total energy              =    -755.96401954 Ry
     estimated scf accuracy    <       0.00000142 Ry

     iteration #  3     ecut=    75.00 Ry     beta= 0.70
     Davidson diagonalization with overlap
     ethr =  2.73E-09,  avg # of iterations =  5.4

     total cpu time spent up to now is       12.7 secs

     total energy              =    -755.96402026 Ry
     estimated scf accuracy    <       0.00000015 Ry

     iteration #  4     ecut=    75.00 Ry     beta= 0.70
     Davidson diagonalization with overlap
     ethr =  2.84E-10,  avg # of iterations =  3.9

     total cpu time spent up to now is       13.2 secs

     total energy              =    -755.96402028 Ry
     estimated scf accuracy    <       0.00000002 Ry

     iteration #  5     ecut=    75.00 Ry     beta= 0.70
     Davidson diagonalization with overlap
     ethr =  2.93E-11,  avg # of iterations =  7.2

     total cpu time spent up to now is       13.9 secs

     End of self-consistent calculation

          k = 0.0000 0.0000 0.0000 ( 11443 PWs)   bands (ev):

   -50.0438 -50.0436 -21.9660 -21.9647 -21.9644 -21.9641 -21.9638 -21.9565
   -12.2461 -12.2454 -12.2436 -12.2390 -12.2296 -12.2271 -12.1011 -12.0985
   -12.0858 -12.0840  -6.5262  -5.5565  -2.0164  -0.8224  -0.7211  -0.6359
    -0.2586  -0.2079   4.7358   5.0808   5.7806   6.2865   6.4612

          k = 0.0000 0.0000 0.1647 ( 11427 PWs)   bands (ev):

   -50.0438 -50.0436 -21.9661 -21.9656 -21.9641 -21.9638 -21.9630 -21.9568
   -12.2460 -12.2453 -12.2438 -12.2398 -12.2291 -12.2269 -12.1009 -12.0987
   -12.0857 -12.0841  -6.4755  -5.6434  -1.8925  -0.8024  -0.7164  -0.6122
    -0.3458  -0.2856   4.8699   5.1314   5.5309   6.1537   6.7313

          k = 0.0000 0.0000 0.3295 ( 11427 PWs)   bands (ev):

   -50.0438 -50.0437 -21.9662 -21.9661 -21.9641 -21.9639 -21.9613 -21.9579
   -12.2455 -12.2447 -12.2443 -12.2416 -12.2280 -12.2268 -12.1005 -12.0992
   -12.0853 -12.0844  -6.3296  -5.8575  -1.5686  -0.7579  -0.7219  -0.6849
    -0.5465  -0.3581   5.1212   5.2845   5.3034   5.8531   6.7150

          k = 0.0000 0.0000-0.4942 ( 11420 PWs)   bands (ev):

   -50.0437 -50.0437 -21.9663 -21.9663 -21.9640 -21.9640 -21.9595 -21.9595
   -12.2449 -12.2449 -12.2435 -12.2435 -12.2271 -12.2271 -12.0998 -12.0998
   -12.0849 -12.0849  -6.1097  -6.1097  -1.1396  -1.1396  -0.7205  -0.7205
    -0.4540  -0.4540   5.2313   5.2313   5.5352   5.5352   7.0243

          k = 0.1667 0.1846 0.0000 ( 11432 PWs)   bands (ev):

   -50.0438 -50.0436 -21.9663 -21.9652 -21.9643 -21.9643 -21.9640 -21.9565
   -12.2452 -12.2442 -12.2418 -12.2396 -12.2291 -12.2265 -12.1011 -12.0984
   -12.0864 -12.0838  -6.4072  -5.5062  -1.9074  -1.4178  -0.7619  -0.6004
    -0.3566  -0.3280   4.7451   5.6081   5.8621   6.4449   6.6759

          k = 0.1667 0.1846 0.1647 ( 11429 PWs)   bands (ev):

   -50.0438 -50.0436 -21.9664 -21.9659 -21.9644 -21.9640 -21.9630 -21.9569
   -12.2451 -12.2440 -12.2420 -12.2404 -12.2285 -12.2263 -12.1009 -12.0985
   -12.0862 -12.0840  -6.3586  -5.5836  -1.8440  -1.3515  -0.8117  -0.5993
    -0.3848  -0.3666   4.8699   5.6880   5.7177   6.4554   6.5562

          k = 0.1667 0.1846 0.3295 ( 11449 PWs)   bands (ev):

   -50.0438 -50.0437 -21.9666 -21.9664 -21.9643 -21.9641 -21.9612 -21.9579
   -12.2448 -12.2436 -12.2425 -12.2420 -12.2274 -12.2262 -12.1004 -12.0990
   -12.0857 -12.0844  -6.2196  -5.7780  -1.6720  -1.2719  -0.8899  -0.5633
    -0.5198  -0.4112   5.1474   5.5358   5.9122   6.2744   6.4479

          k = 0.1667 0.1846-0.4942 ( 11436 PWs)   bands (ev):

   -50.0437 -50.0437 -21.9666 -21.9666 -21.9642 -21.9642 -21.9595 -21.9595
   -12.2438 -12.2438 -12.2430 -12.2430 -12.2265 -12.2265 -12.0997 -12.0997
   -12.0851 -12.0851  -6.0121  -6.0121  -1.4388  -1.4388  -0.7407  -0.7407
    -0.4769  -0.4769   5.3900   5.3900   6.0791   6.0791   6.7197

          k = 0.3333 0.3691 0.0000 ( 11432 PWs)   bands (ev):

   -50.0438 -50.0436 -21.9672 -21.9665 -21.9644 -21.9642 -21.9641 -21.9566
   -12.2444 -12.2412 -12.2407 -12.2389 -12.2274 -12.2250 -12.1009 -12.0980
   -12.0872 -12.0836  -6.0992  -5.4409  -2.1731  -1.6053  -1.2682  -0.6581
    -0.6219  -0.3220   5.0343   5.6807   6.4538   6.5157   7.1671

          k = 0.3333 0.3691 0.1647 ( 11430 PWs)   bands (ev):

   -50.0438 -50.0436 -21.9673 -21.9669 -21.9646 -21.9643 -21.9629 -21.9569
   -12.2446 -12.2419 -12.2405 -12.2389 -12.2269 -12.2248 -12.1007 -12.0982
   -12.0870 -12.0839  -6.0588  -5.4878  -2.2200  -1.6486  -1.2114  -0.6388
    -0.5658  -0.3295   5.0842   5.7592   6.2798   6.4201   7.2163

          k = 0.3333 0.3691 0.3295 ( 11443 PWs)   bands (ev):

   -50.0438 -50.0437 -21.9675 -21.9674 -21.9646 -21.9644 -21.9612 -21.9579
   -12.2447 -12.2432 -12.2402 -12.2392 -12.2258 -12.2245 -12.1002 -12.0987
   -12.0863 -12.0845  -5.9455  -5.6150  -2.2284  -1.8762  -0.9642  -0.6316
    -0.4917  -0.3523   5.2479   5.8689   6.0759   6.1848   7.2634

          k = 0.3333 0.3691-0.4942 ( 11432 PWs)   bands (ev):

   -50.0437 -50.0437 -21.9676 -21.9676 -21.9645 -21.9645 -21.9594 -21.9594
   -12.2443 -12.2443 -12.2397 -12.2397 -12.2248 -12.2248 -12.0995 -12.0995
   -12.0854 -12.0854  -5.7839  -5.7839  -2.1055  -2.1055  -0.7358  -0.7358
    -0.4134  -0.4134   5.5450   5.5450   6.1295   6.1295   7.3938

          k =-0.5000-0.5537 0.0000 ( 11426 PWs)   bands (ev):

   -50.0438 -50.0436 -21.9676 -21.9672 -21.9643 -21.9643 -21.9640 -21.9566
   -12.2433 -12.2427 -12.2391 -12.2378 -12.2262 -12.2240 -12.1009 -12.0979
   -12.0876 -12.0836  -5.8544  -5.4814  -2.4739  -1.5865  -1.2801  -0.9999
    -0.5998  -0.2995   5.2874   5.8895   6.1239   6.5241   7.1882

          k =-0.5000-0.5537 0.1647 ( 11448 PWs)   bands (ev):

   -50.0438 -50.0436 -21.9677 -21.9675 -21.9646 -21.9643 -21.9629 -21.9570
   -12.2437 -12.2432 -12.2390 -12.2378 -12.2257 -12.2238 -12.1006 -12.0981
   -12.0873 -12.0839  -5.8253  -5.4992  -2.5104  -1.8647  -1.0336  -0.9191
    -0.5637  -0.3082   5.3351   5.8707   5.8895   6.5215   7.4989

          k =-0.5000-0.5537 0.3295 ( 11426 PWs)   bands (ev):

   -50.0437 -50.0436 -21.9680 -21.9680 -21.9647 -21.9644 -21.9611 -21.9579
   -12.2444 -12.2441 -12.2386 -12.2379 -12.2247 -12.2235 -12.1001 -12.0986
   -12.0866 -12.0846  -5.7471  -5.5552  -2.5366  -2.2058  -0.7961  -0.7851
    -0.4642  -0.3291   5.4301   5.5937   5.9314   6.3499   7.6934

          k =-0.5000-0.5537-0.4942 ( 11416 PWs)   bands (ev):

   -50.0437 -50.0437 -21.9681 -21.9681 -21.9646 -21.9646 -21.9594 -21.9594
   -12.2446 -12.2446 -12.2383 -12.2383 -12.2238 -12.2238 -12.0993 -12.0993
   -12.0856 -12.0856  -5.6458  -5.6458  -2.4435  -2.4435  -0.7238  -0.7238
    -0.3698  -0.3698   5.4854   5.4854   6.0974   6.0974   7.8869

          k = 0.3333 0.0000 0.0000 ( 11448 PWs)   bands (ev):

   -50.0438 -50.0436 -21.9665 -21.9651 -21.9648 -21.9643 -21.9642 -21.9565
   -12.2457 -12.2423 -12.2399 -12.2395 -12.2291 -12.2254 -12.1016 -12.0988
   -12.0868 -12.0838  -6.3214  -5.4353  -1.8626  -1.4592  -1.0990  -0.6030
    -0.5944  -0.3045   4.8354   5.7730   5.8879   6.4581   6.6445

          k = 0.3333 0.0000 0.1647 ( 11431 PWs)   bands (ev):

   -50.0438 -50.0436 -21.9666 -21.9659 -21.9648 -21.9644 -21.9630 -21.9569
   -12.2455 -12.2421 -12.2402 -12.2400 -12.2285 -12.2254 -12.1014 -12.0989
   -12.0865 -12.0839  -6.2735  -5.5113  -1.7754  -1.4274  -1.0885  -0.6506
    -0.6127  -0.3692   4.9878   5.7156   5.9103   6.5074   6.9342

          k = 0.3333 0.0000 0.3295 ( 11435 PWs)   bands (ev):

   -50.0438 -50.0437 -21.9667 -21.9665 -21.9647 -21.9645 -21.9612 -21.9579
   -12.2449 -12.2419 -12.2416 -12.2405 -12.2273 -12.2256 -12.1008 -12.0994
   -12.0860 -12.0845  -6.1365  -5.7021  -1.5462  -1.3439  -1.1004  -0.8628
    -0.6037  -0.4660   5.3449   5.6902   6.0210   6.4766   7.0897

          k = 0.3333 0.0000-0.4942 ( 11414 PWs)   bands (ev):

   -50.0437 -50.0437 -21.9667 -21.9667 -21.9646 -21.9646 -21.9594 -21.9594
   -12.2437 -12.2437 -12.2411 -12.2411 -12.2262 -12.2262 -12.1001 -12.1001
   -12.0852 -12.0852  -5.9322  -5.9322  -1.2958  -1.2958  -1.1211  -1.1211
    -0.5437  -0.5437   5.6527   5.6527   6.2091   6.2092   6.9773

          k = 0.5000 0.1846 0.0000 ( 11443 PWs)   bands (ev):

   -50.0438 -50.0436 -21.9672 -21.9663 -21.9649 -21.9646 -21.9640 -21.9566
   -12.2456 -12.2403 -12.2385 -12.2366 -12.2280 -12.2239 -12.1017 -12.0987
   -12.0877 -12.0835  -6.0462  -5.3380  -2.0908  -1.6333  -1.3065  -0.9100
    -0.6844  -0.5095   5.0747   5.6975   5.9775   6.4711   7.1366

          k = 0.5000 0.1846 0.1647 ( 11449 PWs)   bands (ev):

   -50.0438 -50.0436 -21.9673 -21.9667 -21.9651 -21.9647 -21.9629 -21.9569
   -12.2455 -12.2410 -12.2384 -12.2367 -12.2275 -12.2240 -12.1015 -12.0989
   -12.0874 -12.0838  -6.0044  -5.3917  -2.1100  -1.6038  -1.3069  -0.8840
    -0.6948  -0.5321   5.1696   5.7469   6.0578   6.6454   6.8528

          k = 0.5000 0.1846 0.3295 ( 11440 PWs)   bands (ev):

   -50.0437 -50.0436 -21.9674 -21.9672 -21.9651 -21.9648 -21.9612 -21.9579
   -12.2451 -12.2425 -12.2380 -12.2370 -12.2262 -12.2242 -12.1009 -12.0994
   -12.0866 -12.0846  -5.8866  -5.5337  -2.0778  -1.7370  -1.1419  -0.8337
    -0.7293  -0.6063   5.4229   5.9822   6.1492   6.6091   6.9655

          k = 0.5000 0.1846-0.4942 ( 11436 PWs)   bands (ev):

   -50.0437 -50.0437 -21.9674 -21.9674 -21.9650 -21.9650 -21.9594 -21.9594
   -12.2441 -12.2441 -12.2375 -12.2375 -12.2250 -12.2250 -12.1002 -12.1002
   -12.0856 -12.0856  -5.7162  -5.7162  -1.9395  -1.9395  -0.9272  -0.9272
    -0.6947  -0.6947   5.7969   5.7969   6.4343   6.4343   7.0672

          k =-0.3333-0.7382 0.0000 ( 11454 PWs)   bands (ev):

   -50.0438 -50.0436 -21.9676 -21.9671 -21.9649 -21.9647 -21.9639 -21.9566
   -12.2446 -12.2417 -12.2367 -12.2355 -12.2270 -12.2233 -12.1014 -12.0983
   -12.0881 -12.0834  -5.7802  -5.3889  -2.4012  -1.5894  -1.3061  -0.9719
    -0.8818  -0.6635   5.3377   5.9497   6.0037   6.4278   7.0285

          k =-0.3333-0.7382 0.1647 ( 11440 PWs)   bands (ev):

   -50.0438 -50.0436 -21.9677 -21.9674 -21.9652 -21.9647 -21.9629 -21.9570
   -12.2448 -12.2422 -12.2366 -12.2355 -12.2265 -12.2233 -12.1012 -12.0985
   -12.0878 -12.0837  -5.7507  -5.4091  -2.4280  -1.8136  -1.1106  -0.9944
    -0.7826  -0.6692   5.3614   5.8501   6.0198   6.5902   7.0977

          k =-0.3333-0.7382 0.3295 ( 11431 PWs)   bands (ev):

   -50.0437 -50.0436 -21.9679 -21.9678 -21.9652 -21.9649 -21.9611 -21.9579
   -12.2449 -12.2435 -12.2363 -12.2356 -12.2252 -12.2234 -12.1006 -12.0990
   -12.0869 -12.0846  -5.6712  -5.4707  -2.4386  -2.1158  -0.9640  -0.8931
    -0.7300  -0.6269   5.4475   5.8069   6.1634   6.6453   7.1603

          k =-0.3333-0.7382-0.4942 ( 11426 PWs)   bands (ev):

   -50.0437 -50.0437 -21.9680 -21.9680 -21.9651 -21.9651 -21.9594 -21.9594
   -12.2445 -12.2445 -12.2359 -12.2359 -12.2240 -12.2240 -12.0998 -12.0998
   -12.0858 -12.0858  -5.5666  -5.5666  -2.3403  -2.3403  -0.8941  -0.8941
    -0.6426  -0.6426   5.6536   5.6536   6.4417   6.4418   7.2200

          k =-0.1667-0.5537 0.0000 ( 11420 PWs)   bands (ev):

   -50.0438 -50.0436 -21.9673 -21.9665 -21.9650 -21.9646 -21.9640 -21.9566
   -12.2433 -12.2426 -12.2383 -12.2365 -12.2279 -12.2247 -12.1009 -12.0979
   -12.0878 -12.0834  -5.9494  -5.4163  -2.1304  -1.4160  -1.2936  -1.1029
    -0.8323  -0.6056   5.3204   5.9710   6.6303   6.7021   7.1270

          k =-0.1667-0.5537 0.1647 ( 11428 PWs)   bands (ev):

   -50.0438 -50.0436 -21.9674 -21.9669 -21.9652 -21.9646 -21.9629 -21.9570
   -12.2437 -12.2431 -12.2382 -12.2366 -12.2273 -12.2245 -12.1007 -12.0981
   -12.0875 -12.0837  -5.9139  -5.4501  -2.1762  -1.6062  -1.2231  -0.9952
    -0.7673  -0.5835   5.4047   5.9411   6.2921   7.1188   7.1675

          k =-0.1667-0.5537 0.3295 ( 11422 PWs)   bands (ev):

   -50.0437 -50.0436 -21.9676 -21.9675 -21.9651 -21.9648 -21.9611 -21.9579
   -12.2444 -12.2441 -12.2378 -12.2369 -12.2260 -12.2244 -12.1001 -12.0986
   -12.0867 -12.0845  -5.8157  -5.5456  -2.2047  -1.8888  -1.1270  -0.9102
    -0.6559  -0.5027   5.6025   5.8613   6.1926   6.7800   7.2291

          k =-0.1667-0.5537-0.4942 ( 11436 PWs)   bands (ev):

   -50.0437 -50.0437 -21.9677 -21.9677 -21.9650 -21.9650 -21.9594 -21.9594
   -12.2446 -12.2446 -12.2374 -12.2374 -12.2248 -12.2248 -12.0994 -12.0994
   -12.0856 -12.0856  -5.6802  -5.6802  -2.1093  -2.1093  -1.0069  -1.0069
    -0.5121  -0.5121   5.7841   5.7841   6.3187   6.3187   7.4542

          k = 0.0000-0.3691 0.0000 ( 11429 PWs)   bands (ev):

   -50.0438 -50.0436 -21.9666 -21.9654 -21.9649 -21.9642 -21.9642 -21.9566
   -12.2443 -12.2421 -12.2409 -12.2398 -12.2288 -12.2263 -12.1008 -12.0979
   -12.0870 -12.0835  -6.2627  -5.4730  -1.7463  -1.5701  -1.1007  -0.6562
    -0.5829  -0.5253   5.0501   5.9835   6.0610   7.0047   7.2167

          k = 0.0000-0.3691 0.1647 ( 11427 PWs)   bands (ev):

   -50.0438 -50.0436 -21.9667 -21.9661 -21.9648 -21.9643 -21.9630 -21.9569
   -12.2444 -12.2419 -12.2416 -12.2400 -12.2282 -12.2261 -12.1006 -12.0981
   -12.0867 -12.0837  -6.2177  -5.5358  -1.8195  -1.4371  -1.0696  -0.7873
    -0.6219  -0.4187   5.2005   6.0016   6.0228   6.7552   6.9502

          k = 0.0000-0.3691 0.3295 ( 11413 PWs)   bands (ev):

   -50.0438 -50.0437 -21.9669 -21.9668 -21.9647 -21.9644 -21.9612 -21.9579
   -12.2446 -12.2430 -12.2415 -12.2404 -12.2269 -12.2258 -12.1000 -12.0986
   -12.0861 -12.0844  -6.0901  -5.6987  -1.8037  -1.4585  -0.9824  -0.7349
    -0.7246  -0.3933   5.6005   5.9469   6.1437   6.3578   6.6216

          k = 0.0000-0.3691-0.4942 ( 11434 PWs)   bands (ev):

   -50.0437 -50.0437 -21.9670 -21.9670 -21.9645 -21.9645 -21.9594 -21.9594
   -12.2442 -12.2442 -12.2410 -12.2410 -12.2260 -12.2260 -12.0993 -12.0993
   -12.0852 -12.0852  -5.9031  -5.9031  -1.6567  -1.6567  -0.8574  -0.8574
    -0.5201  -0.5201   5.9838   5.9839   6.2739   6.2744   6.3469

          k = 0.6667 0.0000 0.0000 ( 11464 PWs)   bands (ev):

   -50.0438 -50.0436 -21.9675 -21.9662 -21.9660 -21.9653 -21.9638 -21.9566
   -12.2463 -12.2404 -12.2343 -12.2323 -12.2285 -12.2227 -12.1025 -12.0992
   -12.0886 -12.0833  -5.8274  -5.1807  -2.0959  -1.5323  -1.5149  -1.4047
    -1.1430  -0.4861   4.8196   5.1921   5.8182   6.7556   6.9363

          k = 0.6667 0.0000 0.1647 ( 11462 PWs)   bands (ev):

   -50.0438 -50.0436 -21.9675 -21.9666 -21.9661 -21.9653 -21.9629 -21.9570
   -12.2461 -12.2410 -12.2342 -12.2324 -12.2279 -12.2229 -12.1022 -12.0994
   -12.0882 -12.0837  -5.7886  -5.2290  -2.0551  -1.5785  -1.4991  -1.4059
    -1.1133  -0.5655   5.0314   5.2452   6.0050   6.8540   6.9375

          k = 0.6667 0.0000 0.3295 ( 11441 PWs)   bands (ev):

   -50.0437 -50.0436 -21.9676 -21.9673 -21.9660 -21.9655 -21.9611 -21.9579
   -12.2454 -12.2425 -12.2338 -12.2328 -12.2265 -12.2236 -12.1016 -12.1000
   -12.0873 -12.0846  -5.6797  -5.3571  -1.9405  -1.6150  -1.5507  -1.4252
    -1.0226  -0.7405   5.5035   5.5804   6.4482   6.7912   6.8467

          k = 0.6667 0.0000-0.4942 ( 11446 PWs)   bands (ev):

   -50.0437 -50.0437 -21.9676 -21.9676 -21.9658 -21.9658 -21.9594 -21.9594
   -12.2442 -12.2442 -12.2333 -12.2333 -12.2249 -12.2249 -12.1008 -12.1008
   -12.0859 -12.0859  -5.5232  -5.5232  -1.7765  -1.7765  -1.4865  -1.4865
    -0.9025  -0.9025   5.9804   5.9804   6.4146   6.4146   6.9422

          k =-0.1667-0.9228 0.0000 ( 11444 PWs)   bands (ev):

   -50.0438 -50.0436 -21.9677 -21.9668 -21.9661 -21.9654 -21.9637 -21.9567
   -12.2460 -12.2410 -12.2322 -12.2308 -12.2281 -12.2223 -12.1024 -12.0991
   -12.0891 -12.0832  -5.6101  -5.1751  -2.2531  -1.7674  -1.5424  -1.3177
    -1.2175  -0.6738   4.7059   5.2743   5.6192   6.2970   7.3810

          k =-0.1667-0.9228 0.1647 ( 11447 PWs)   bands (ev):

   -50.0438 -50.0436 -21.9678 -21.9671 -21.9663 -21.9655 -21.9628 -21.9570
   -12.2459 -12.2416 -12.2321 -12.2308 -12.2276 -12.2225 -12.1022 -12.0993
   -12.0887 -12.0836  -5.5800  -5.2014  -2.2463  -1.7909  -1.5823  -1.3013
    -1.2017  -0.6962   4.8538   5.2856   5.9343   6.4639   7.3120

          k =-0.1667-0.9228 0.3295 ( 11429 PWs)   bands (ev):

   -50.0437 -50.0436 -21.9679 -21.9676 -21.9662 -21.9657 -21.9611 -21.9579
   -12.2455 -12.2430 -12.2317 -12.2310 -12.2261 -12.2232 -12.1015 -12.0998
   -12.0876 -12.0846  -5.4975  -5.2769  -2.2015  -1.9150  -1.5740  -1.3663
    -1.0788  -0.7774   5.2489   5.6099   6.4113   6.6857   7.1506

          k =-0.1667-0.9228-0.4942 ( 11424 PWs)   bands (ev):

   -50.0437 -50.0437 -21.9679 -21.9679 -21.9659 -21.9659 -21.9594 -21.9594
   -12.2445 -12.2445 -12.2313 -12.2313 -12.2245 -12.2245 -12.1007 -12.1007
   -12.0861 -12.0861  -5.3856  -5.3856  -2.0849  -2.0849  -1.4781  -1.4781
    -0.9170  -0.9170   5.8232   5.8232   6.3191   6.3191   7.3877

          k =-0.0000-0.7382 0.0000 ( 11416 PWs)   bands (ev):

   -50.0438 -50.0436 -21.9675 -21.9663 -21.9662 -21.9652 -21.9638 -21.9567
   -12.2447 -12.2419 -12.2340 -12.2322 -12.2286 -12.2234 -12.1017 -12.0984
   -12.0887 -12.0832  -5.6815  -5.3117  -2.0573  -1.7816  -1.3342  -1.1902
    -1.1288  -0.9272   4.9252   5.9133   6.0550   6.4052   7.4650

          k =-0.0000-0.7382 0.1647 ( 11440 PWs)   bands (ev):

   -50.0438 -50.0436 -21.9676 -21.9669 -21.9661 -21.9653 -21.9629 -21.9570
   -12.2449 -12.2425 -12.2338 -12.2323 -12.2279 -12.2234 -12.1014 -12.0986
   -12.0884 -12.0835  -5.6536  -5.3310  -2.0953  -1.7439  -1.5833  -1.1801
    -0.9819  -0.8431   5.0276   5.7477   6.4861   6.5484   7.1930

          k =-0.0000-0.7382 0.3295 ( 11433 PWs)   bands (ev):

   -50.0437 -50.0436 -21.9678 -21.9676 -21.9659 -21.9654 -21.9611 -21.9579
   -12.2451 -12.2436 -12.2335 -12.2326 -12.2263 -12.2238 -12.1008 -12.0992
   -12.0873 -12.0846  -5.5784  -5.3895  -2.1289  -1.8636  -1.6373  -1.3135
    -0.7904  -0.7108   5.2832   5.9744   6.4476   6.9188   6.9256

          k =-0.0000-0.7382-0.4942 ( 11418 PWs)   bands (ev):

   -50.0437 -50.0437 -21.9678 -21.9678 -21.9657 -21.9657 -21.9594 -21.9594
   -12.2447 -12.2447 -12.2331 -12.2331 -12.2248 -12.2248 -12.1000 -12.1000
   -12.0859 -12.0859  -5.4798  -5.4798  -2.0582  -2.0582  -1.4820  -1.4820
    -0.6864  -0.6864   5.7414   5.7414   6.5661   6.5661   7.3409

          k =-1.0000 0.0000 0.0000 ( 11478 PWs)   bands (ev):

   -50.0438 -50.0436 -21.9679 -21.9668 -21.9665 -21.9657 -21.9637 -21.9567
   -12.2466 -12.2408 -12.2300 -12.2288 -12.2283 -12.2217 -12.1029 -12.0994
   -12.0895 -12.0831  -5.5104  -5.0476  -2.1916  -2.0554  -1.7078  -1.3611
    -1.3144  -0.5717   4.5093   4.9703   5.1855   5.9928   8.6224

          k =-1.0000 0.0000 0.1647 ( 11466 PWs)   bands (ev):

   -50.0438 -50.0436 -21.9679 -21.9670 -21.9668 -21.9658 -21.9628 -21.9570
   -12.2464 -12.2414 -12.2299 -12.2284 -12.2281 -12.2220 -12.1027 -12.0997
   -12.0891 -12.0835  -5.4800  -5.0783  -2.1568  -2.0157  -1.7398  -1.4164
    -1.2952  -0.6630   4.7284   5.0074   5.4957   6.1676   8.3247

          k =-1.0000 0.0000 0.3295 ( 11428 PWs)   bands (ev):

   -50.0437 -50.0436 -21.9680 -21.9677 -21.9666 -21.9660 -21.9611 -21.9579
   -12.2457 -12.2429 -12.2296 -12.2287 -12.2265 -12.2230 -12.1020 -12.1003
   -12.0879 -12.0847  -5.3959  -5.1630  -2.0624  -1.9033  -1.8214  -1.5595
    -1.2300  -0.8740   5.2830   5.3243   6.1366   6.6552   7.5948

          k =-1.0000 0.0000-0.4942 ( 11408 PWs)   bands (ev):

   -50.0437 -50.0437 -21.9680 -21.9680 -21.9663 -21.9663 -21.9594 -21.9594
   -12.2444 -12.2444 -12.2291 -12.2291 -12.2246 -12.2246 -12.1011 -12.1011
   -12.0863 -12.0863  -5.2797  -5.2797  -1.9375  -1.9375  -1.7389  -1.7389
    -1.0884  -1.0884   5.6985   5.6985   6.7400   6.7401   7.2193

     the Fermi energy is     1.7993 ev

!    total energy              =    -755.96402029 Ry
     estimated scf accuracy    <          8.5E-10 Ry
     smearing contrib. (-TS)   =       0.00000000 Ry
     internal energy E=F+TS    =    -755.96402029 Ry

     The total energy is F=E-TS. E is the sum of the following terms:
     one-electron contribution =    -441.09806798 Ry
     hartree contribution      =     246.83753524 Ry
     xc contribution           =    -110.76627417 Ry
     ewald contribution        =    -228.23326596 Ry
     one-center paw contrib.   =    -222.70394742 Ry

     convergence has been achieved in   5 iterations

     Forces acting on atoms (cartesian axes, Ry/au):

     atom    1 type  2   force =     0.00000000    0.00014789    0.00000000
     atom    2 type  2   force =     0.00000000   -0.00014789    0.00000000
     atom    3 type  3   force =     0.00000000    0.00056442    0.00000000
     atom    4 type  3   force =     0.00000000   -0.00056442    0.00000000
     atom    5 type  1   force =    -0.00000000    0.00206904   -0.00330743
     atom    6 type  1   force =     0.00000000    0.00206904    0.00330743
     atom    7 type  1   force =     0.00000000   -0.00206904   -0.00330743
     atom    8 type  1   force =     0.00000000   -0.00206904    0.00330743
     atom    9 type  1   force =     0.00333134   -0.00191168    0.00000000
     atom   10 type  1   force =     0.00333134    0.00191168    0.00000000
     atom   11 type  1   force =    -0.00333134    0.00191168    0.00000000
     atom   12 type  1   force =    -0.00333134   -0.00191168    0.00000000

     Total force =     0.010980     Total SCF correction =     0.000039


     Computing stress (Cartesian axis) and pressure

          total   stress  (Ry/bohr**3)                   (kbar)     P=       12.61
   0.00007890  -0.00000000   0.00000000           11.61       -0.00        0.00
  -0.00000000   0.00009534   0.00000000           -0.00       14.03        0.00
   0.00000000   0.00000000   0.00008287            0.00        0.00       12.19

     Energy error            =      1.9E-04 Ry
     Gradient error          =      3.3E-03 Ry/Bohr

     number of scf cycles    =   2
     number of bfgs steps    =   1

     energy             old  =    -755.9638261576 Ry
     energy             new  =    -755.9640202933 Ry

     CASE: energy            _new < energy            _old

     new trust radius        =       0.0059153745 bohr
     new conv_thr            =       0.0000000002 Ry


ATOMIC_POSITIONS (crystal)
Ga            0.8419048118        0.1580951882        0.7500000000
Ga            0.1580951882        0.8419048118        0.2500000000
Na            0.6580685310        0.3419314690        0.2500000000
Na            0.3419314690        0.6580685310        0.7500000000
H             0.6895557502        0.3104442498        0.5702249002
H             0.6895557502        0.3104442498        0.9297750998
H             0.3104442498        0.6895557502        0.0702249002
H             0.3104442498        0.6895557502        0.4297750998
H             0.1757146731        0.1928193038        0.7500000000
H             0.1928193038        0.1757146731        0.2500000000
H             0.8242853269        0.8071806962        0.2500000000
H             0.8071806962        0.8242853269        0.7500000000



     Writing config-only to output data dir ./nagah4.save/
     NEW-OLD atomic charge density approx. for the potential

     total cpu time spent up to now is       14.4 secs

     Self-consistent Calculation

     iteration #  1     ecut=    75.00 Ry     beta= 0.70
     Davidson diagonalization with overlap
     ethr =  1.00E-06,  avg # of iterations =  2.0

     Threshold (ethr) on eigenvalues was too large:
     Diagonalizing with lowered threshold

     Davidson diagonalization with overlap
     ethr =  2.96E-08,  avg # of iterations =  5.2

     total cpu time spent up to now is       15.4 secs

     total energy              =    -755.96416145 Ry
     estimated scf accuracy    <       0.00002142 Ry

     iteration #  2     ecut=    75.00 Ry     beta= 0.70
     Davidson diagonalization with overlap
     ethr =  4.12E-08,  avg # of iterations =  2.0

     total cpu time spent up to now is       15.8 secs

     total energy              =    -755.96416584 Ry
     estimated scf accuracy    <       0.00000205 Ry

     iteration #  3     ecut=    75.00 Ry     beta= 0.70
     Davidson diagonalization with overlap
     ethr =  3.95E-09,  avg # of iterations =  5.0

     total cpu time spent up to now is       16.4 secs

     total energy              =    -755.96416658 Ry
     estimated scf accuracy    <       0.00000018 Ry

     iteration #  4     ecut=    75.00 Ry     beta= 0.70
     Davidson diagonalization with overlap
     ethr =  3.37E-10,  avg # of iterations =  5.3

     total cpu time spent up to now is       16.9 secs

     total energy              =    -755.96416664 Ry
     estimated scf accuracy    <       0.00000004 Ry

     iteration #  5     ecut=    75.00 Ry     beta= 0.70
     Davidson diagonalization with overlap
     ethr =  7.18E-11,  avg # of iterations =  6.2

     total cpu time spent up to now is       17.5 secs

     total energy              =    -755.96416666 Ry
     estimated scf accuracy    <          2.7E-09 Ry

     iteration #  6     ecut=    75.00 Ry     beta= 0.70
     Davidson diagonalization with overlap
     ethr =  5.18E-12,  avg # of iterations =  5.7

     total cpu time spent up to now is       18.2 secs

     total energy              =    -755.96416666 Ry
     estimated scf accuracy    <          7.7E-10 Ry

     iteration #  7     ecut=    75.00 Ry     beta= 0.70
     Davidson diagonalization with overlap
     ethr =  1.48E-12,  avg # of iterations =  5.3

     total cpu time spent up to now is       18.9 secs

     total energy              =    -755.96416666 Ry
     estimated scf accuracy    <          2.4E-10 Ry

     iteration #  8     ecut=    75.00 Ry     beta= 0.70
     Davidson diagonalization with overlap
     ethr =  4.62E-13,  avg # of iterations =  3.6

     total cpu time spent up to now is       19.4 secs

     End of self-consistent calculation

          k = 0.0000 0.0000 0.0000 ( 11443 PWs)   bands (ev):

   -50.0389 -50.0387 -21.9613 -21.9599 -21.9596 -21.9593 -21.9590 -21.9516
   -12.2475 -12.2468 -12.2450 -12.2404 -12.2313 -12.2287 -12.1045 -12.1020
   -12.0893 -12.0874  -6.5182  -5.5448  -2.0176  -0.8165  -0.7150  -0.6330
    -0.2543  -0.2035   4.7287   5.0728   5.7775   6.2794   6.4516

          k = 0.0000 0.0000 0.1647 ( 11427 PWs)   bands (ev):

   -50.0389 -50.0387 -21.9613 -21.9608 -21.9593 -21.9590 -21.9583 -21.9520
   -12.2473 -12.2467 -12.2452 -12.2412 -12.2307 -12.2286 -12.1043 -12.1021
   -12.0891 -12.0875  -6.4673  -5.6323  -1.8932  -0.7964  -0.7104  -0.6093
    -0.3418  -0.2815   4.8626   5.1235   5.5254   6.1466   6.7212

          k = 0.0000 0.0000 0.3295 ( 11427 PWs)   bands (ev):

   -50.0389 -50.0388 -21.9615 -21.9614 -21.9592 -21.9590 -21.9565 -21.9531
   -12.2469 -12.2461 -12.2456 -12.2430 -12.2296 -12.2285 -12.1039 -12.1026
   -12.0888 -12.0879  -6.3210  -5.8474  -1.5681  -0.7517  -0.7185  -0.6791
    -0.5434  -0.3543   5.1131   5.2769   5.2962   5.8460   6.7080

          k = 0.0000 0.0000-0.4942 ( 11420 PWs)   bands (ev):

   -50.0388 -50.0388 -21.9615 -21.9615 -21.9591 -21.9591 -21.9547 -21.9547
   -12.2463 -12.2463 -12.2449 -12.2449 -12.2288 -12.2288 -12.1032 -12.1032
   -12.0883 -12.0883  -6.1005  -6.1005  -1.1379  -1.1379  -0.7141  -0.7141
    -0.4505  -0.4505   5.2230   5.2230   5.5280   5.5280   7.0189

          k = 0.1667 0.1846 0.0000 ( 11432 PWs)   bands (ev):

   -50.0389 -50.0387 -21.9616 -21.9604 -21.9595 -21.9595 -21.9591 -21.9517
   -12.2466 -12.2456 -12.2432 -12.2410 -12.2308 -12.2281 -12.1045 -12.1018
   -12.0898 -12.0872  -6.3988  -5.4943  -1.9085  -1.4152  -0.7565  -0.5958
    -0.3517  -0.3241   4.7362   5.6012   5.8563   6.4365   6.6682

          k = 0.1667 0.1846 0.1647 ( 11429 PWs)   bands (ev):

   -50.0389 -50.0387 -21.9617 -21.9611 -21.9596 -21.9592 -21.9582 -21.9521
   -12.2465 -12.2454 -12.2434 -12.2418 -12.2302 -12.2280 -12.1043 -12.1020
   -12.0896 -12.0874  -6.3501  -5.5722  -1.8444  -1.3492  -0.8063  -0.5949
    -0.3808  -0.3619   4.8609   5.6811   5.7116   6.4463   6.5500

          k = 0.1667 0.1846 0.3295 ( 11449 PWs)   bands (ev):

   -50.0389 -50.0388 -21.9618 -21.9617 -21.9595 -21.9593 -21.9565 -21.9531
   -12.2462 -12.2450 -12.2439 -12.2434 -12.2290 -12.2278 -12.1038 -12.1024
   -12.0891 -12.0879  -6.2106  -5.7674  -1.6711  -1.2699  -0.8852  -0.5582
    -0.5166  -0.4062   5.1384   5.5283   5.9054   6.2683   6.4411

          k = 0.1667 0.1846-0.4942 ( 11436 PWs)   bands (ev):

   -50.0388 -50.0388 -21.9619 -21.9619 -21.9594 -21.9594 -21.9547 -21.9547
   -12.2452 -12.2452 -12.2444 -12.2444 -12.2281 -12.2281 -12.1031 -12.1031
   -12.0885 -12.0885  -6.0024  -6.0024  -1.4369  -1.4369  -0.7368  -0.7368
    -0.4721  -0.4721   5.3812   5.3812   6.0732   6.0732   6.7132

          k = 0.3333 0.3691 0.0000 ( 11432 PWs)   bands (ev):

   -50.0389 -50.0387 -21.9624 -21.9617 -21.9596 -21.9594 -21.9593 -21.9518
   -12.2458 -12.2425 -12.2421 -12.2403 -12.2291 -12.2266 -12.1043 -12.1014
   -12.0906 -12.0871  -6.0895  -5.4288  -2.1725  -1.6062  -1.2647  -0.6551
    -0.6173  -0.3158   5.0247   5.6729   6.4482   6.5070   7.1626

          k = 0.3333 0.3691 0.1647 ( 11430 PWs)   bands (ev):

   -50.0389 -50.0387 -21.9625 -21.9621 -21.9598 -21.9594 -21.9581 -21.9521
   -12.2460 -12.2432 -12.2419 -12.2403 -12.2285 -12.2264 -12.1041 -12.1016
   -12.0904 -12.0873  -6.0490  -5.4760  -2.2197  -1.6485  -1.2087  -0.6356
    -0.5611  -0.3233   5.0746   5.7511   6.2735   6.4122   7.2130

          k = 0.3333 0.3691 0.3295 ( 11443 PWs)   bands (ev):

   -50.0388 -50.0387 -21.9628 -21.9626 -21.9598 -21.9595 -21.9564 -21.9531
   -12.2461 -12.2446 -12.2415 -12.2406 -12.2274 -12.2262 -12.1036 -12.1022
   -12.0897 -12.0880  -5.9353  -5.6036  -2.2283  -1.8757  -0.9617  -0.6288
    -0.4862  -0.3463   5.2384   5.8595   6.0676   6.1798   7.2610

          k = 0.3333 0.3691-0.4942 ( 11432 PWs)   bands (ev):

   -50.0388 -50.0388 -21.9628 -21.9628 -21.9597 -21.9597 -21.9546 -21.9546
   -12.2457 -12.2457 -12.2411 -12.2411 -12.2265 -12.2265 -12.1029 -12.1029
   -12.0888 -12.0888  -5.7731  -5.7731  -2.1053  -2.1053  -0.7331  -0.7331
    -0.4076  -0.4076   5.5357   5.5357   6.1226   6.1226   7.3903

          k =-0.5000-0.5537 0.0000 ( 11426 PWs)   bands (ev):

   -50.0389 -50.0387 -21.9629 -21.9624 -21.9595 -21.9594 -21.9592 -21.9518
   -12.2447 -12.2440 -12.2405 -12.2393 -12.2279 -12.2256 -12.1043 -12.1013
   -12.0910 -12.0870  -5.8430  -5.4703  -2.4737  -1.5843  -1.2823  -0.9960
    -0.5950  -0.2932   5.2789   5.8840   6.1080   6.5200   7.1823

          k =-0.5000-0.5537 0.1647 ( 11448 PWs)   bands (ev):

   -50.0389 -50.0387 -21.9630 -21.9628 -21.9598 -21.9595 -21.9581 -21.9522
   -12.2451 -12.2445 -12.2404 -12.2392 -12.2274 -12.2254 -12.1041 -12.1015
   -12.0907 -12.0873  -5.8139  -5.4880  -2.5105  -1.8646  -1.0335  -0.9153
    -0.5586  -0.3018   5.3267   5.8585   5.8835   6.5145   7.4917

          k =-0.5000-0.5537 0.3295 ( 11426 PWs)   bands (ev):

   -50.0388 -50.0387 -21.9632 -21.9632 -21.9598 -21.9596 -21.9563 -21.9531
   -12.2458 -12.2455 -12.2400 -12.2393 -12.2263 -12.2251 -12.1035 -12.1020
   -12.0900 -12.0880  -5.7356  -5.5437  -2.5372  -2.2065  -0.7946  -0.7817
    -0.4586  -0.3228   5.4218   5.5835   5.9240   6.3420   7.6954

          k =-0.5000-0.5537-0.4942 ( 11416 PWs)   bands (ev):

   -50.0388 -50.0388 -21.9634 -21.9634 -21.9597 -21.9597 -21.9546 -21.9546
   -12.2460 -12.2460 -12.2396 -12.2396 -12.2254 -12.2254 -12.1028 -12.1028
   -12.0890 -12.0890  -5.6342  -5.6342  -2.4444  -2.4444  -0.7212  -0.7212
    -0.3637  -0.3637   5.4764   5.4764   6.0893   6.0893   7.8850

          k = 0.3333 0.0000 0.0000 ( 11448 PWs)   bands (ev):

   -50.0389 -50.0387 -21.9618 -21.9604 -21.9600 -21.9595 -21.9594 -21.9517
   -12.2471 -12.2436 -12.2412 -12.2408 -12.2307 -12.2271 -12.1050 -12.1022
   -12.0902 -12.0872  -6.3126  -5.4230  -1.8637  -1.4574  -1.0942  -0.5996
    -0.5887  -0.3005   4.8246   5.7672   5.8793   6.4482   6.6433

          k = 0.3333 0.0000 0.1647 ( 11431 PWs)   bands (ev):

   -50.0389 -50.0387 -21.9618 -21.9611 -21.9599 -21.9595 -21.9582 -21.9521
   -12.2469 -12.2435 -12.2416 -12.2414 -12.2302 -12.2271 -12.1048 -12.1023
   -12.0900 -12.0874  -6.2646  -5.4995  -1.7759  -1.4255  -1.0838  -0.6448
    -0.6094  -0.3656   4.9770   5.7095   5.9029   6.4976   6.9313

          k = 0.3333 0.0000 0.3295 ( 11435 PWs)   bands (ev):

   -50.0389 -50.0387 -21.9619 -21.9618 -21.9599 -21.9596 -21.9564 -21.9531
   -12.2463 -12.2433 -12.2430 -12.2419 -12.2290 -12.2272 -12.1042 -12.1028
   -12.0894 -12.0879  -6.1273  -5.6912  -1.5457  -1.3420  -1.0960  -0.8578
    -0.6002  -0.4624   5.3340   5.6834   6.0138   6.4684   7.0826

          k = 0.3333 0.0000-0.4942 ( 11414 PWs)   bands (ev):

   -50.0388 -50.0388 -21.9620 -21.9620 -21.9597 -21.9597 -21.9546 -21.9546
   -12.2451 -12.2451 -12.2424 -12.2424 -12.2279 -12.2279 -12.1035 -12.1035
   -12.0887 -12.0887  -5.9223  -5.9223  -1.2949  -1.2949  -1.1162  -1.1162
    -0.5400  -0.5400   5.6428   5.6428   6.2023   6.2023   6.9732

          k = 0.5000 0.1846 0.0000 ( 11443 PWs)   bands (ev):

   -50.0389 -50.0387 -21.9624 -21.9615 -21.9601 -21.9598 -21.9592 -21.9518
   -12.2470 -12.2417 -12.2399 -12.2380 -12.2297 -12.2256 -12.1051 -12.1021
   -12.0911 -12.0870  -6.0363  -5.3254  -2.0903  -1.6341  -1.3029  -0.9059
    -0.6803  -0.5061   5.0643   5.6903   5.9700   6.4711   7.1212

          k = 0.5000 0.1846 0.1647 ( 11449 PWs)   bands (ev):

   -50.0389 -50.0387 -21.9625 -21.9619 -21.9603 -21.9599 -21.9581 -21.9521
   -12.2469 -12.2424 -12.2398 -12.2381 -12.2291 -12.2256 -12.1049 -12.1023
   -12.0908 -12.0873  -5.9944  -5.3794  -2.1096  -1.6040  -1.3036  -0.8799
    -0.6908  -0.5289   5.1589   5.7412   6.0502   6.6434   6.8427

          k = 0.5000 0.1846 0.3295 ( 11440 PWs)   bands (ev):

   -50.0388 -50.0387 -21.9627 -21.9624 -21.9603 -21.9600 -21.9564 -21.9531
   -12.2465 -12.2439 -12.2394 -12.2384 -12.2279 -12.2259 -12.1043 -12.1028
   -12.0900 -12.0880  -5.8762  -5.5219  -2.0774  -1.7362  -1.1390  -0.8292
    -0.7257  -0.6037   5.4122   5.9776   6.1389   6.6038   6.9638

          k = 0.5000 0.1846-0.4942 ( 11436 PWs)   bands (ev):

   -50.0388 -50.0388 -21.9627 -21.9627 -21.9601 -21.9601 -21.9546 -21.9546
   -12.2455 -12.2455 -12.2389 -12.2389 -12.2266 -12.2266 -12.1036 -12.1036
   -12.0890 -12.0890  -5.7052  -5.7052  -1.9389  -1.9389  -0.9232  -0.9232
    -0.6919  -0.6919   5.7861   5.7861   6.4312   6.4312   7.0621

          k =-0.3333-0.7382 0.0000 ( 11454 PWs)   bands (ev):

   -50.0389 -50.0387 -21.9629 -21.9623 -21.9601 -21.9598 -21.9591 -21.9518
   -12.2460 -12.2430 -12.2381 -12.2369 -12.2286 -12.2250 -12.1048 -12.1017
   -12.0916 -12.0869  -5.7686  -5.3772  -2.4009  -1.5871  -1.3075  -0.9682
    -0.8786  -0.6591   5.3313   5.9416   5.9986   6.4145   7.0243

          k =-0.3333-0.7382 0.1647 ( 11440 PWs)   bands (ev):

   -50.0389 -50.0387 -21.9630 -21.9626 -21.9604 -21.9599 -21.9581 -21.9522
   -12.2462 -12.2436 -12.2380 -12.2369 -12.2281 -12.2249 -12.1046 -12.1019
   -12.0913 -12.0872  -5.7390  -5.3973  -2.4280  -1.8132  -1.1100  -0.9913
    -0.7788  -0.6647   5.3537   5.8421   6.0143   6.5800   7.0963

          k =-0.3333-0.7382 0.3295 ( 11431 PWs)   bands (ev):

   -50.0388 -50.0387 -21.9632 -21.9631 -21.9604 -21.9600 -21.9563 -21.9531
   -12.2463 -12.2449 -12.2377 -12.2370 -12.2269 -12.2250 -12.1040 -12.1024
   -12.0904 -12.0880  -5.6593  -5.4587  -2.4391  -2.1162  -0.9609  -0.8920
    -0.7251  -0.6227   5.4381   5.7974   6.1582   6.6425   7.1553

          k =-0.3333-0.7382-0.4942 ( 11426 PWs)   bands (ev):

   -50.0388 -50.0388 -21.9633 -21.9633 -21.9602 -21.9602 -21.9546 -21.9546
   -12.2459 -12.2459 -12.2373 -12.2373 -12.2257 -12.2257 -12.1032 -12.1032
   -12.0892 -12.0892  -5.5546  -5.5546  -2.3410  -2.3410  -0.8915  -0.8915
    -0.6383  -0.6383   5.6434   5.6434   6.4382   6.4382   7.2177

          k =-0.1667-0.5537 0.0000 ( 11420 PWs)   bands (ev):

   -50.0389 -50.0387 -21.9625 -21.9617 -21.9602 -21.9597 -21.9592 -21.9518
   -12.2447 -12.2440 -12.2397 -12.2379 -12.2296 -12.2264 -12.1043 -12.1013
   -12.0913 -12.0868  -5.9390  -5.4043  -2.1296  -1.4169  -1.2904  -1.0999
    -0.8295  -0.6005   5.3119   5.9661   6.6267   6.6890   7.1263

          k =-0.1667-0.5537 0.1647 ( 11428 PWs)   bands (ev):

   -50.0389 -50.0387 -21.9626 -21.9622 -21.9604 -21.9598 -21.9581 -21.9521
   -12.2451 -12.2445 -12.2395 -12.2380 -12.2289 -12.2262 -12.1041 -12.1015
   -12.0910 -12.0871  -5.9033  -5.4382  -2.1756  -1.6056  -1.2213  -0.9926
    -0.7640  -0.5782   5.3959   5.9361   6.2833   7.1173   7.1601

          k =-0.1667-0.5537 0.3295 ( 11422 PWs)   bands (ev):

   -50.0388 -50.0387 -21.9628 -21.9627 -21.9603 -21.9599 -21.9564 -21.9531
   -12.2458 -12.2455 -12.2392 -12.2383 -12.2276 -12.2260 -12.1035 -12.1020
   -12.0901 -12.0879  -5.8049  -5.5339  -2.2044  -1.8882  -1.1252  -0.9084
    -0.6511  -0.4976   5.5931   5.8534   6.1854   6.7759   7.2291

          k =-0.1667-0.5537-0.4942 ( 11436 PWs)   bands (ev):

   -50.0388 -50.0388 -21.9629 -21.9629 -21.9601 -21.9601 -21.9546 -21.9546
   -12.2460 -12.2460 -12.2387 -12.2387 -12.2265 -12.2265 -12.1028 -12.1028
   -12.0890 -12.0890  -5.6690  -5.6690  -2.1090  -2.1090  -1.0050  -1.0050
    -0.5071  -0.5071   5.7741   5.7741   6.3141   6.3141   7.4545

          k = 0.0000-0.3691 0.0000 ( 11429 PWs)   bands (ev):

   -50.0389 -50.0387 -21.9619 -21.9607 -21.9600 -21.9594 -21.9594 -21.9517
   -12.2457 -12.2434 -12.2423 -12.2412 -12.2305 -12.2280 -12.1042 -12.1014
   -12.0904 -12.0870  -6.2538  -5.4610  -1.7472  -1.5673  -1.0990  -0.6480
    -0.5801  -0.5220   5.0404   5.9788   6.0560   6.9986   7.2110

          k = 0.0000-0.3691 0.1647 ( 11427 PWs)   bands (ev):

   -50.0389 -50.0387 -21.9620 -21.9614 -21.9600 -21.9594 -21.9582 -21.9521
   -12.2458 -12.2433 -12.2430 -12.2413 -12.2298 -12.2277 -12.1040 -12.1015
   -12.0902 -12.0872  -6.2087  -5.5241  -1.8192  -1.4354  -1.0679  -0.7810
    -0.6191  -0.4136   5.1908   5.9969   6.0182   6.7467   6.9457

          k = 0.0000-0.3691 0.3295 ( 11413 PWs)   bands (ev):

   -50.0389 -50.0387 -21.9622 -21.9620 -21.9598 -21.9595 -21.9564 -21.9531
   -12.2460 -12.2444 -12.2429 -12.2418 -12.2286 -12.2274 -12.1034 -12.1020
   -12.0895 -12.0878  -6.0806  -5.6878  -1.8026  -1.4566  -0.9805  -0.7295
    -0.7222  -0.3880   5.5907   5.9419   6.1394   6.3495   6.6175

          k = 0.0000-0.3691-0.4942 ( 11434 PWs)   bands (ev):

   -50.0388 -50.0388 -21.9622 -21.9622 -21.9597 -21.9597 -21.9546 -21.9546
   -12.2456 -12.2456 -12.2423 -12.2423 -12.2276 -12.2276 -12.1027 -12.1027
   -12.0887 -12.0887  -5.8930  -5.8930  -1.6549  -1.6549  -0.8552  -0.8552
    -0.5148  -0.5148   5.9761   5.9761   6.2657   6.2661   6.3428

          k = 0.6667 0.0000 0.0000 ( 11464 PWs)   bands (ev):

   -50.0389 -50.0387 -21.9627 -21.9613 -21.9613 -21.9604 -21.9591 -21.9518
   -12.2477 -12.2417 -12.2357 -12.2336 -12.2301 -12.2243 -12.1059 -12.1026
   -12.0920 -12.0868  -5.8165  -5.1671  -2.0957  -1.5288  -1.5157  -1.4022
    -1.1414  -0.4826   4.8112   5.1847   5.8160   6.7551   6.9269

          k = 0.6667 0.0000 0.1647 ( 11462 PWs)   bands (ev):

   -50.0389 -50.0387 -21.9628 -21.9619 -21.9613 -21.9605 -21.9581 -21.9521
   -12.2475 -12.2424 -12.2356 -12.2338 -12.2295 -12.2246 -12.1056 -12.1028
   -12.0917 -12.0871  -5.7776  -5.2157  -2.0549  -1.5761  -1.4987  -1.4032
    -1.1118  -0.5625   5.0233   5.2394   6.0008   6.8534   6.9283

          k = 0.6667 0.0000 0.3295 ( 11441 PWs)   bands (ev):

   -50.0388 -50.0387 -21.9628 -21.9625 -21.9611 -21.9607 -21.9563 -21.9531
   -12.2468 -12.2439 -12.2352 -12.2341 -12.2281 -12.2253 -12.1050 -12.1034
   -12.0907 -12.0881  -5.6683  -5.3444  -1.9400  -1.6126  -1.5497  -1.4222
    -1.0214  -0.7386   5.5000   5.5732   6.4398   6.7853   6.8430

          k = 0.6667 0.0000-0.4942 ( 11446 PWs)   bands (ev):

   -50.0388 -50.0388 -21.9628 -21.9628 -21.9609 -21.9609 -21.9546 -21.9546
   -12.2456 -12.2456 -12.2347 -12.2347 -12.2265 -12.2265 -12.1042 -12.1042
   -12.0894 -12.0894  -5.5112  -5.5112  -1.7756  -1.7756  -1.4837  -1.4837
    -0.9013  -0.9013   5.9798   5.9798   6.4034   6.4034   6.9346

          k =-0.1667-0.9228 0.0000 ( 11444 PWs)   bands (ev):

   -50.0389 -50.0387 -21.9630 -21.9620 -21.9613 -21.9606 -21.9589 -21.9519
   -12.2474 -12.2424 -12.2335 -12.2322 -12.2297 -12.2239 -12.1058 -12.1025
   -12.0925 -12.0866  -5.5977  -5.1617  -2.2530  -1.7663  -1.5391  -1.3185
    -1.2162  -0.6707   4.6994   5.2683   5.6143   6.2951   7.3688

          k =-0.1667-0.9228 0.1647 ( 11447 PWs)   bands (ev):

   -50.0389 -50.0387 -21.9631 -21.9623 -21.9614 -21.9606 -21.9580 -21.9522
   -12.2473 -12.2430 -12.2334 -12.2322 -12.2292 -12.2241 -12.1056 -12.1027
   -12.0921 -12.0870  -5.5675  -5.1881  -2.2463  -1.7899  -1.5799  -1.3003
    -1.2013  -0.6932   4.8469   5.2816   5.9284   6.4626   7.2985

[...]

   -50.0315 -50.0313 -21.9557 -21.9552 -21.9523 -21.9521 -21.9520 -21.9446
   -12.2473 -12.2466 -12.2431 -12.2419 -12.2309 -12.2287 -12.1099 -12.1069
   -12.0967 -12.0928  -5.8259  -5.4538  -2.4732  -1.5808  -1.2858  -0.9904
    -0.5876  -0.2836   5.2660   5.8755   6.0836   6.5142   7.1732

          k =-0.5000-0.5537 0.1647 ( 11448 PWs)   bands (ev):

   -50.0315 -50.0313 -21.9558 -21.9556 -21.9525 -21.9522 -21.9509 -21.9449
   -12.2477 -12.2472 -12.2430 -12.2419 -12.2304 -12.2284 -12.1097 -12.1071
   -12.0965 -12.0930  -5.7967  -5.4712  -2.5105  -1.8643  -1.0336  -0.9097
    -0.5509  -0.2921   5.3139   5.8397   5.8741   6.5041   7.4809

          k =-0.5000-0.5537 0.3295 ( 11426 PWs)   bands (ev):

   -50.0314 -50.0313 -21.9561 -21.9560 -21.9525 -21.9523 -21.9491 -21.9459
   -12.2484 -12.2481 -12.2426 -12.2420 -12.2293 -12.2282 -12.1091 -12.1077
   -12.0957 -12.0937  -5.7182  -5.5266  -2.5381  -2.2075  -0.7926  -0.7768
    -0.4500  -0.3131   5.4090   5.5677   5.9126   6.3301   7.6983

          k =-0.5000-0.5537-0.4942 ( 11416 PWs)   bands (ev):

   -50.0314 -50.0314 -21.9562 -21.9562 -21.9524 -21.9524 -21.9473 -21.9473
   -12.2487 -12.2487 -12.2422 -12.2422 -12.2284 -12.2284 -12.1084 -12.1084
   -12.0947 -12.0947  -5.6168  -5.6168  -2.4457  -2.4457  -0.7175  -0.7175
    -0.3544  -0.3544   5.4626   5.4626   6.0772   6.0772   7.8819

          k = 0.3333 0.0000 0.0000 ( 11448 PWs)   bands (ev):

   -50.0315 -50.0313 -21.9546 -21.9533 -21.9526 -21.9522 -21.9521 -21.9444
   -12.2498 -12.2462 -12.2438 -12.2435 -12.2338 -12.2301 -12.1106 -12.1078
   -12.0959 -12.0929  -6.2996  -5.4048  -1.8654  -1.4544  -1.0869  -0.5946
    -0.5799  -0.2948   4.8081   5.7587   5.8666   6.4328   6.6414

          k = 0.3333 0.0000 0.1647 ( 11431 PWs)   bands (ev):

   -50.0315 -50.0313 -21.9547 -21.9540 -21.9526 -21.9522 -21.9510 -21.9448
   -12.2496 -12.2460 -12.2442 -12.2440 -12.2332 -12.2301 -12.1104 -12.1080
   -12.0957 -12.0931  -6.2514  -5.4818  -1.7770  -1.4225  -1.0765  -0.6362
    -0.6044  -0.3603   4.9605   5.7005   5.8918   6.4825   6.9269

          k = 0.3333 0.0000 0.3295 ( 11435 PWs)   bands (ev):

   -50.0315 -50.0313 -21.9548 -21.9546 -21.9525 -21.9523 -21.9492 -21.9459
   -12.2490 -12.2460 -12.2456 -12.2444 -12.2320 -12.2303 -12.1099 -12.1085
   -12.0951 -12.0937  -6.1134  -5.6750  -1.5452  -1.3390  -1.0891  -0.8505
    -0.5950  -0.4570   5.3172   5.6732   6.0028   6.4559   7.0716

          k = 0.3333 0.0000-0.4942 ( 11414 PWs)   bands (ev):

   -50.0314 -50.0314 -21.9548 -21.9548 -21.9524 -21.9524 -21.9474 -21.9474
   -12.2477 -12.2477 -12.2450 -12.2450 -12.2309 -12.2309 -12.1092 -12.1092
   -12.0944 -12.0944  -5.9074  -5.9074  -1.2937  -1.2937  -1.1087  -1.1087
    -0.5345  -0.5345   5.6278   5.6278   6.1919   6.1919   6.9667

          k = 0.5000 0.1846 0.0000 ( 11443 PWs)   bands (ev):

   -50.0315 -50.0313 -21.9553 -21.9543 -21.9528 -21.9525 -21.9520 -21.9445
   -12.2497 -12.2443 -12.2425 -12.2406 -12.2327 -12.2286 -12.1107 -12.1077
   -12.0968 -12.0927  -6.0216  -5.3065  -2.0893  -1.6357  -1.2973  -0.8997
    -0.6743  -0.5013   5.0485   5.6797   5.9584   6.4713   7.0974

          k = 0.5000 0.1846 0.1647 ( 11449 PWs)   bands (ev):

   -50.0315 -50.0313 -21.9554 -21.9547 -21.9530 -21.9525 -21.9509 -21.9449
   -12.2496 -12.2450 -12.2423 -12.2407 -12.2322 -12.2287 -12.1105 -12.1079
   -12.0965 -12.0930  -5.9795  -5.3608  -2.1090  -1.6044  -1.2986  -0.8737
    -0.6846  -0.5244   5.1426   5.7330   6.0383   6.6404   6.8270

          k = 0.5000 0.1846 0.3295 ( 11440 PWs)   bands (ev):

   -50.0314 -50.0313 -21.9555 -21.9553 -21.9530 -21.9527 -21.9492 -21.9459
   -12.2491 -12.2466 -12.2420 -12.2410 -12.2309 -12.2289 -12.1100 -12.1085
   -12.0958 -12.0937  -5.8607  -5.5044  -2.0769  -1.7350  -1.1346  -0.8224
    -0.7202  -0.5998   5.3958   5.9707   6.1229   6.5954   6.9616

          k = 0.5000 0.1846-0.4942 ( 11436 PWs)   bands (ev):

   -50.0314 -50.0314 -21.9555 -21.9555 -21.9528 -21.9528 -21.9474 -21.9474
   -12.2481 -12.2481 -12.2415 -12.2415 -12.2297 -12.2297 -12.1092 -12.1092
   -12.0947 -12.0947  -5.6887  -5.6887  -1.9380  -1.9380  -0.9173  -0.9173
    -0.6877  -0.6877   5.7695   5.7695   6.4266   6.4266   7.0542

          k =-0.3333-0.7382 0.0000 ( 11454 PWs)   bands (ev):

   -50.0315 -50.0313 -21.9557 -21.9551 -21.9529 -21.9525 -21.9519 -21.9446
   -12.2487 -12.2457 -12.2407 -12.2396 -12.2316 -12.2280 -12.1104 -12.1073
   -12.0973 -12.0926  -5.7511  -5.3598  -2.4004  -1.5836  -1.3097  -0.9624
    -0.8739  -0.6524   5.3216   5.9287   5.9912   6.3939   7.0182

          k =-0.3333-0.7382 0.1647 ( 11440 PWs)   bands (ev):

   -50.0315 -50.0313 -21.9558 -21.9554 -21.9531 -21.9526 -21.9509 -21.9449
   -12.2488 -12.2463 -12.2406 -12.2396 -12.2311 -12.2279 -12.1102 -12.1075
   -12.0970 -12.0929  -5.7215  -5.3797  -2.4279  -1.8125  -1.1092  -0.9864
    -0.7731  -0.6579   5.3421   5.8295   6.0058   6.5645   7.0942

          k =-0.3333-0.7382 0.3295 ( 11431 PWs)   bands (ev):

   -50.0314 -50.0313 -21.9560 -21.9559 -21.9531 -21.9527 -21.9491 -21.9459
   -12.2490 -12.2475 -12.2403 -12.2397 -12.2299 -12.2280 -12.1096 -12.1081
   -12.0961 -12.0937  -5.6416  -5.4409  -2.4398  -2.1168  -0.9561  -0.8904
    -0.7178  -0.6164   5.4240   5.7826   6.1500   6.6384   7.1475

          k =-0.3333-0.7382-0.4942 ( 11426 PWs)   bands (ev):

   -50.0314 -50.0314 -21.9561 -21.9561 -21.9529 -21.9529 -21.9473 -21.9473
   -12.2486 -12.2486 -12.2399 -12.2399 -12.2287 -12.2287 -12.1088 -12.1088
   -12.0949 -12.0949  -5.5367  -5.5367  -2.3420  -2.3420  -0.8875  -0.8875
    -0.6320  -0.6320   5.6278   5.6278   6.4326   6.4326   7.2143

          k =-0.1667-0.5537 0.0000 ( 11420 PWs)   bands (ev):

   -50.0315 -50.0313 -21.9554 -21.9545 -21.9529 -21.9524 -21.9520 -21.9445
   -12.2473 -12.2466 -12.2423 -12.2405 -12.2326 -12.2294 -12.1100 -12.1070
   -12.0970 -12.0925  -5.9235  -5.3864  -2.1280  -1.4187  -1.2856  -1.0954
    -0.8255  -0.5926   5.2986   5.9586   6.6216   6.6688   7.1252

          k =-0.1667-0.5537 0.1647 ( 11428 PWs)   bands (ev):

   -50.0315 -50.0313 -21.9555 -21.9550 -21.9530 -21.9525 -21.9509 -21.9449
   -12.2477 -12.2471 -12.2421 -12.2406 -12.2320 -12.2292 -12.1097 -12.1071
   -12.0967 -12.0928  -5.8876  -5.4204  -2.1746  -1.6048  -1.2186  -0.9887
    -0.7592  -0.5701   5.3823   5.9283   6.2698   7.1145   7.1495

          k =-0.1667-0.5537 0.3295 ( 11422 PWs)   bands (ev):

   -50.0314 -50.0313 -21.9557 -21.9556 -21.9530 -21.9526 -21.9491 -21.9459
   -12.2484 -12.2481 -12.2418 -12.2409 -12.2306 -12.2291 -12.1092 -12.1077
   -12.0959 -12.0936  -5.7887  -5.5165  -2.2040  -1.8875  -1.1224  -0.9057
    -0.6440  -0.4899   5.5787   5.8414   6.1744   6.7696   7.2293

          k =-0.1667-0.5537-0.4942 ( 11436 PWs)   bands (ev):

   -50.0314 -50.0314 -21.9558 -21.9558 -21.9528 -21.9528 -21.9473 -21.9473
   -12.2487 -12.2487 -12.2413 -12.2413 -12.2295 -12.2295 -12.1084 -12.1084
   -12.0947 -12.0947  -5.6521  -5.6521  -2.1086  -2.1086  -1.0021  -1.0021
    -0.4996  -0.4996   5.7588   5.7588   6.3070   6.3070   7.4546

          k = 0.0000-0.3691 0.0000 ( 11429 PWs)   bands (ev):

   -50.0315 -50.0313 -21.9547 -21.9536 -21.9527 -21.9522 -21.9520 -21.9445
   -12.2483 -12.2460 -12.2449 -12.2438 -12.2336 -12.2311 -12.1098 -12.1070
   -12.0961 -12.0927  -6.2405  -5.4431  -1.7489  -1.5629  -1.0966  -0.6355
    -0.5758  -0.5175   5.0254   5.9718   6.0480   6.9897   7.2022

          k = 0.0000-0.3691 0.1647 ( 11427 PWs)   bands (ev):

   -50.0315 -50.0313 -21.9548 -21.9543 -21.9526 -21.9521 -21.9510 -21.9448
   -12.2485 -12.2458 -12.2456 -12.2439 -12.2329 -12.2308 -12.1096 -12.1072
   -12.0959 -12.0929  -6.1951  -5.5067  -1.8188  -1.4326  -1.0653  -0.7715
    -0.6150  -0.4060   5.1757   5.9894   6.0113   6.7339   6.9388

          k = 0.0000-0.3691 0.3295 ( 11413 PWs)   bands (ev):

   -50.0315 -50.0313 -21.9550 -21.9549 -21.9525 -21.9522 -21.9492 -21.9459
   -12.2487 -12.2471 -12.2455 -12.2443 -12.2316 -12.2305 -12.1091 -12.1077
   -12.0953 -12.0935  -6.0665  -5.6714  -1.8009  -1.4536  -0.9777  -0.7213
    -0.7184  -0.3798   5.5755   5.9341   6.1329   6.3370   6.6112

          k = 0.0000-0.3691-0.4942 ( 11434 PWs)   bands (ev):

   -50.0314 -50.0314 -21.9551 -21.9551 -21.9524 -21.9524 -21.9474 -21.9474
   -12.2483 -12.2483 -12.2449 -12.2449 -12.2307 -12.2307 -12.1084 -12.1084
   -12.0944 -12.0944  -5.8779  -5.8779  -1.6523  -1.6523  -0.8520  -0.8520
    -0.5068  -0.5068   5.9641   5.9641   6.2531   6.2535   6.3366

          k = 0.6667 0.0000 0.0000 ( 11464 PWs)   bands (ev):

   -50.0315 -50.0313 -21.9556 -21.9542 -21.9540 -21.9531 -21.9518 -21.9446
   -12.2504 -12.2444 -12.2383 -12.2362 -12.2332 -12.2274 -12.1115 -12.1083
   -12.0978 -12.0925  -5.8002  -5.1467  -2.0952  -1.5234  -1.5171  -1.3983
    -1.1389  -0.4777   4.7983   5.1739   5.8124   6.7544   6.9122

          k = 0.6667 0.0000 0.1647 ( 11462 PWs)   bands (ev):

   -50.0315 -50.0313 -21.9556 -21.9547 -21.9539 -21.9532 -21.9509 -21.9449
   -12.2502 -12.2450 -12.2381 -12.2363 -12.2326 -12.2276 -12.1113 -12.1085
   -12.0974 -12.0928  -5.7611  -5.1957  -2.0543  -1.5725  -1.4979  -1.3991
    -1.1096  -0.5583   5.0108   5.2309   5.9941   6.8525   6.9142

          k = 0.6667 0.0000 0.3295 ( 11441 PWs)   bands (ev):

   -50.0314 -50.0313 -21.9557 -21.9554 -21.9538 -21.9533 -21.9491 -21.9459
   -12.2495 -12.2465 -12.2378 -12.2367 -12.2312 -12.2283 -12.1106 -12.1090
   -12.0964 -12.0938  -5.6512  -5.3253  -1.9391  -1.6089  -1.5483  -1.4177
    -1.0197  -0.7361   5.4950   5.5622   6.4265   6.7762   6.8375

          k = 0.6667 0.0000-0.4942 ( 11446 PWs)   bands (ev):

   -50.0314 -50.0314 -21.9557 -21.9557 -21.9536 -21.9536 -21.9473 -21.9473
   -12.2482 -12.2482 -12.2372 -12.2372 -12.2296 -12.2296 -12.1098 -12.1098
   -12.0951 -12.0951  -5.4932  -5.4932  -1.7742  -1.7742  -1.4795  -1.4795
    -0.8998  -0.8998   5.9789   5.9789   6.3860   6.3861   6.9230

          k =-0.1667-0.9228 0.0000 ( 11444 PWs)   bands (ev):

   -50.0315 -50.0313 -21.9559 -21.9548 -21.9541 -21.9532 -21.9517 -21.9446
   -12.2501 -12.2450 -12.2361 -12.2349 -12.2326 -12.2270 -12.1115 -12.1081
   -12.0982 -12.0923  -5.5792  -5.1419  -2.2526  -1.7646  -1.5339  -1.3199
    -1.2142  -0.6662   4.6894   5.2594   5.6062   6.2922   7.3499

          k =-0.1667-0.9228 0.1647 ( 11447 PWs)   bands (ev):

   -50.0315 -50.0313 -21.9559 -21.9552 -21.9541 -21.9533 -21.9508 -21.9449
   -12.2500 -12.2456 -12.2360 -12.2349 -12.2322 -12.2272 -12.1112 -12.1083
   -12.0978 -12.0927  -5.5488  -5.1683  -2.2461  -1.7883  -1.5760  -1.2989
    -1.2009  -0.6889   4.8362   5.2756   5.9192   6.4607   7.2780

          k =-0.1667-0.9228 0.3295 ( 11429 PWs)   bands (ev):

   -50.0314 -50.0313 -21.9561 -21.9558 -21.9540 -21.9535 -21.9491 -21.9459
   -12.2495 -12.2470 -12.2357 -12.2350 -12.2308 -12.2279 -12.1106 -12.1089
   -12.0968 -12.0938  -5.4658  -5.2440  -2.2016  -1.9133  -1.5696  -1.3619
    -1.0774  -0.7713   5.2317   5.6057   6.3954   6.6775   7.1341

          k =-0.1667-0.9228-0.4942 ( 11424 PWs)   bands (ev):

   -50.0314 -50.0314 -21.9561 -21.9561 -21.9538 -21.9538 -21.9473 -21.9473
   -12.2485 -12.2485 -12.2353 -12.2353 -12.2292 -12.2292 -12.1097 -12.1097
   -12.0953 -12.0953  -5.3532  -5.3532  -2.0844  -2.0844  -1.4740  -1.4740
    -0.9131  -0.9131   5.8146   5.8146   6.3043   6.3043   7.3782

          k =-0.0000-0.7382 0.0000 ( 11416 PWs)   bands (ev):

   -50.0315 -50.0313 -21.9557 -21.9545 -21.9540 -21.9530 -21.9518 -21.9446
   -12.2488 -12.2459 -12.2379 -12.2361 -12.2334 -12.2281 -12.1107 -12.1075
   -12.0979 -12.0923  -5.6515  -5.2812  -2.0533  -1.7809  -1.3215  -1.1952
    -1.1258  -0.9179   4.9095   5.9032   6.0362   6.3989   7.4292

          k =-0.0000-0.7382 0.1647 ( 11440 PWs)   bands (ev):

   -50.0315 -50.0313 -21.9557 -21.9550 -21.9540 -21.9531 -21.9509 -21.9449
   -12.2490 -12.2465 -12.2378 -12.2362 -12.2327 -12.2281 -12.1105 -12.1077
   -12.0975 -12.0927  -5.6234  -5.3003  -2.0921  -1.7431  -1.5791  -1.1773
    -0.9780  -0.8336   5.0103   5.7347   6.4718   6.5430   7.1675

          k =-0.0000-0.7382 0.3295 ( 11433 PWs)   bands (ev):

   -50.0314 -50.0313 -21.9559 -21.9557 -21.9538 -21.9533 -21.9491 -21.9459
   -12.2491 -12.2477 -12.2375 -12.2366 -12.2311 -12.2285 -12.1098 -12.1082
   -12.0965 -12.0937  -5.5478  -5.3585  -2.1270  -1.8615  -1.6361  -1.3112
    -0.7834  -0.7014   5.2630   5.9596   6.4299   6.9163   6.9254

          k =-0.0000-0.7382-0.4942 ( 11418 PWs)   bands (ev):

   -50.0314 -50.0314 -21.9560 -21.9560 -21.9535 -21.9535 -21.9473 -21.9473
   -12.2487 -12.2487 -12.2370 -12.2370 -12.2295 -12.2295 -12.1090 -12.1090
   -12.0951 -12.0951  -5.4489  -5.4489  -2.0568  -2.0568  -1.4803  -1.4803
    -0.6777  -0.6777   5.7179   5.7179   6.5648   6.5648   7.3425

          k =-1.0000 0.0000 0.0000 ( 11478 PWs)   bands (ev):

   -50.0315 -50.0313 -21.9560 -21.9547 -21.9546 -21.9535 -21.9517 -21.9446
   -12.2507 -12.2448 -12.2339 -12.2336 -12.2322 -12.2264 -12.1120 -12.1085
   -12.0987 -12.0923  -5.4782  -5.0115  -2.1925  -2.0557  -1.6997  -1.3594
    -1.3162  -0.5638   4.4928   4.9545   5.1736   5.9864   8.5634

          k =-1.0000 0.0000 0.1647 ( 11466 PWs)   bands (ev):

   -50.0315 -50.0313 -21.9561 -21.9551 -21.9546 -21.9536 -21.9508 -21.9449
   -12.2504 -12.2454 -12.2338 -12.2329 -12.2323 -12.2267 -12.1117 -12.1087
   -12.0983 -12.0927  -5.4475  -5.0424  -2.1572  -2.0160  -1.7320  -1.4149
    -1.2972  -0.6563   4.7134   4.9975   5.4795   6.1620   8.2721

          k =-1.0000 0.0000 0.3295 ( 11428 PWs)   bands (ev):

   -50.0314 -50.0313 -21.9562 -21.9558 -21.9544 -21.9538 -21.9491 -21.9459
   -12.2497 -12.2469 -12.2335 -12.2327 -12.2312 -12.2277 -12.1110 -12.1093
   -12.0971 -12.0939  -5.3627  -5.1279  -2.0612  -1.9033  -1.8151  -1.5585
    -1.2315  -0.8702   5.2733   5.3219   6.1187   6.6516   7.5461

          k =-1.0000 0.0000-0.4942 ( 11408 PWs)   bands (ev):

   -50.0314 -50.0314 -21.9561 -21.9561 -21.9541 -21.9541 -21.9473 -21.9473
   -12.2485 -12.2485 -12.2331 -12.2331 -12.2293 -12.2293 -12.1101 -12.1101
   -12.0955 -12.0955  -5.2456  -5.2456  -1.9339  -1.9339  -1.7384  -1.7384
    -1.0877  -1.0877   5.7017   5.7017   6.7297   6.7297   7.1639

     the Fermi energy is     1.7492 ev

!    total energy              =    -755.96425163 Ry
     estimated scf accuracy    <          1.2E-10 Ry
     smearing contrib. (-TS)   =       0.00000000 Ry
     internal energy E=F+TS    =    -755.96425163 Ry

     The total energy is F=E-TS. E is the sum of the following terms:
     one-electron contribution =    -440.67594649 Ry
     hartree contribution      =     246.60656195 Ry
     xc contribution           =    -110.74740624 Ry
     ewald contribution        =    -228.45919441 Ry
     one-center paw contrib.   =    -222.68826645 Ry

     convergence has been achieved in   7 iterations

     Forces acting on atoms (cartesian axes, Ry/au):

     atom    1 type  2   force =     0.00000000    0.00004397    0.00000000
     atom    2 type  2   force =     0.00000000   -0.00004397    0.00000000
     atom    3 type  3   force =     0.00000000    0.00044955    0.00000000
     atom    4 type  3   force =     0.00000000   -0.00044955    0.00000000
     atom    5 type  1   force =     0.00000000   -0.00011934   -0.00005150
     atom    6 type  1   force =     0.00000000   -0.00011934    0.00005150
     atom    7 type  1   force =     0.00000000    0.00011934   -0.00005150
     atom    8 type  1   force =     0.00000000    0.00011934    0.00005150
     atom    9 type  1   force =     0.00015096    0.00012109    0.00000000
     atom   10 type  1   force =     0.00015096   -0.00012109    0.00000000
     atom   11 type  1   force =    -0.00015096   -0.00012109    0.00000000
     atom   12 type  1   force =    -0.00015096    0.00012109    0.00000000

     Total force =     0.000791     Total SCF correction =     0.000016


     Computing stress (Cartesian axis) and pressure

          total   stress  (Ry/bohr**3)                   (kbar)     P=        9.02
   0.00005375   0.00000000   0.00000000            7.91        0.00        0.00
  -0.00000000   0.00007015   0.00000000           -0.00       10.32        0.00
   0.00000000   0.00000000   0.00006003            0.00        0.00        8.83

     Energy error            =      8.5E-05 Ry
     Gradient error          =      4.5E-04 Ry/Bohr

     bfgs converged in   4 scf cycles and   3 bfgs steps
     (criteria: energy <  1.0E-04 Ry, force <  1.0E-03 Ry/Bohr)

     End of BFGS Geometry Optimization

     Final energy             =    -755.9642516338 Ry

     File ./nagah4.bfgs deleted, as requested
Begin final coordinates

ATOMIC_POSITIONS (crystal)
Ga            0.8418726390        0.1581273610        0.7500000000
Ga            0.1581273610        0.8418726390        0.2500000000
Na            0.6579193184        0.3420806816        0.2500000000
Na            0.3420806816        0.6579193184        0.7500000000
H             0.6891700272        0.3108299728        0.5696546507
H             0.6891700272        0.3108299728        0.9303453493
H             0.3108299728        0.6891700272        0.0696546507
H             0.3108299728        0.6891700272        0.4303453493
H             0.1766627347        0.1930537308        0.7500000000
H             0.1930537308        0.1766627347        0.2500000000
H             0.8233372653        0.8069462692        0.2500000000
H             0.8069462692        0.8233372653        0.7500000000
End final coordinates



     Writing all to output data dir ./nagah4.save/
 
     init_run     :      0.47s CPU      0.61s WALL (       1 calls)
     electrons    :     21.73s CPU     22.37s WALL (       4 calls)
     update_pot   :      0.30s CPU      0.31s WALL (       3 calls)
     forces       :      0.39s CPU      0.40s WALL (       4 calls)
     stress       :      0.83s CPU      0.84s WALL (       4 calls)

     Called by init_run:
     wfcinit      :      0.13s CPU      0.16s WALL (       1 calls)
     potinit      :      0.10s CPU      0.13s WALL (       1 calls)
     hinit0       :      0.06s CPU      0.11s WALL (       1 calls)

     Called by electrons:
     c_bands      :     17.76s CPU     18.20s WALL (      37 calls)
     sum_band     :      2.27s CPU      2.32s WALL (      37 calls)
     v_of_rho     :      0.17s CPU      0.18s WALL (      37 calls)
     newd         :      0.19s CPU      0.20s WALL (      37 calls)
     PAW_pot      :      1.47s CPU      1.50s WALL (      40 calls)
     mix_rho      :      0.05s CPU      0.05s WALL (      37 calls)

     Called by c_bands:
     init_us_2    :      0.18s CPU      0.18s WALL (    1118 calls)
     init_us_2:cp :      0.18s CPU      0.18s WALL (    1118 calls)
     cegterg      :     13.53s CPU     13.82s WALL (     485 calls)

     Called by *egterg:
     cdiaghg      :      2.67s CPU      2.73s WALL (    2672 calls)
     h_psi        :      9.37s CPU      9.60s WALL (    2776 calls)
     s_psi        :      0.22s CPU      0.22s WALL (    2776 calls)
     g_psi        :      0.04s CPU      0.04s WALL (    2278 calls)

     Called by h_psi:
     h_psi:calbec :      0.45s CPU      0.47s WALL (    2776 calls)
     vloc_psi     :      8.59s CPU      8.80s WALL (    2776 calls)
     add_vuspsi   :      0.26s CPU      0.27s WALL (    2776 calls)

     General routines
     calbec       :      0.62s CPU      0.64s WALL (    3556 calls)
     fft          :      0.13s CPU      0.17s WALL (     580 calls)
     ffts         :      0.02s CPU      0.03s WALL (      74 calls)
     fftw         :      9.25s CPU      9.46s WALL (  105035 calls)
     interpolate  :      0.02s CPU      0.03s WALL (      37 calls)
 
     Parallel routines
 
     PWSCF        :     24.27s CPU     25.36s WALL

 
   This run was terminated on:   9:20:37   1Dec2023            

=------------------------------------------------------------------------------=
   JOB DONE.
=------------------------------------------------------------------------------=
Job execution finished at: Fri Dec  1 09:20:37 IST 2023
