==========================================
SLURM_CLUSTER_NAME = paramganga
SLURM_ARRAY_JOB_ID = 
SLURM_ARRAY_TASK_ID = 
SLURM_ARRAY_TASK_COUNT = 
SLURM_ARRAY_TASK_MAX = 
SLURM_ARRAY_TASK_MIN = 
SLURM_JOB_ACCOUNT = iitr
SLURM_JOB_ID = 174914
SLURM_JOB_NAME = 19280
SLURM_JOB_NODELIST = cn[161-163]
SLURM_JOB_USER = garima.iitr
SLURM_JOB_UID = 38339
SLURM_JOB_PARTITION = small
SLURM_TASK_PID = 44066
SLURM_SUBMIT_DIR = /home/garima.iitr/.cache/.es/compmat/nagah4
SLURM_CPUS_ON_NODE = 48
SLURM_NTASKS = 144
SLURM_TASK_PID = 44066
==========================================
cn161
 
:: initializing oneAPI environment ...
   slurm_script: BASH_VERSION = 4.2.46(2)-release
   args: Using "$@" for setvars.sh arguments: 
:: advisor -- latest
:: ccl -- latest
:: clck -- latest
:: compiler -- latest
:: dal -- latest
:: debugger -- latest
:: dev-utilities -- latest
:: dnnl -- latest
:: dpcpp-ct -- latest
:: dpl -- latest
:: inspector -- latest
:: intelpython -- latest
:: ipp -- latest
:: ippcp -- latest
:: ipp -- latest
:: itac -- latest
:: mkl -- latest
:: mpi -- latest
:: tbb -- latest
:: vpl -- latest
:: vtune -- latest
:: oneAPI environment initialized ::
 
Job execution start: Fri Dec  1 12:23:16 IST 2023
Job submitted by garima.iitr
The job ID is:174914

     Program PWSCF v.7.1 starts on  1Dec2023 at 12:23:20 

     This program is part of the open-source Quantum ESPRESSO suite
     for quantum simulation of materials; please cite
         "P. Giannozzi et al., J. Phys.:Condens. Matter 21 395502 (2009);
         "P. Giannozzi et al., J. Phys.:Condens. Matter 29 465901 (2017);
         "P. Giannozzi et al., J. Chem. Phys. 152 154105 (2020);
          URL http://www.quantum-espresso.org", 
     in publications or presentations arising from this work. More details at
     http://www.quantum-espresso.org/quote

     Parallel version (MPI & OpenMP), running on     144 processor cores
     Number of MPI processes:               144
     Threads/MPI process:                     1

     MPI processes distributed on     3 nodes
     169735 MiB available memory on the printing compute node when the environment starts
 
     Reading input from nagah4.in

     Current dimensions of program PWSCF are:
     Max number of different atomic species (ntypx) = 10
     Max number of k-points (npk) =  40000
     Max angular momentum in pseudopotentials (lmaxx) =  4
     file Ga.pbe-dn-kjpaw_psl.1.0.0.UPF: wavefunction(s)  4S renormalized

     IMPORTANT: XC functional enforced from input :
     Exchange-correlation= PBE
                           (   1   4   3   4   0   0   0)
     Any further DFT definition will be discarded
     Please, verify this is what you really want

     Message from routine setup:
     using ibrav=0 with symmetry is DISCOURAGED, use correct ibrav instead
 
     K-points division:     npool     =       4
     R & G space division:  proc/nbgrp/npool/nimage =      36
     Subspace diagonalization in iterative solution of the eigenvalue problem:
     a serial algorithm will be used

 
     Parallelization info
     --------------------
     sticks:   dense  smooth     PW     G-vecs:    dense   smooth      PW
     Min          65      52     14                 3549     2536     376
     Max          66      53     15                 3555     2542     381
     Sum        2341    1873    519               127907    91433   13621
 
     Using Slab Decomposition
 


     bravais-lattice index     =            0
     lattice parameter (alat)  =      13.1656  a.u.
     unit-cell volume          =    1042.5457 (a.u.)^3
     number of atoms/cell      =           12
     number of atomic types    =            3
     number of electrons       =        52.00
     number of Kohn-Sham states=           31
     kinetic-energy cutoff     =      75.0000  Ry
     charge density cutoff     =     375.0000  Ry
     scf convergence threshold =      1.0E-08
     mixing beta               =       0.7000
     number of iterations used =            8  plain     mixing
     energy convergence thresh.=      1.0E-04
     force convergence thresh. =      1.0E-03
     press convergence thresh. =      5.0E-01
     Exchange-correlation= PBE
                           (   1   4   3   4   0   0   0)
     nstep                     =           50


     celldm(1)=  13.165552  celldm(2)=   0.000000  celldm(3)=   0.000000
     celldm(4)=   0.000000  celldm(5)=   0.000000  celldm(6)=   0.000000

     crystal axes: (cart. coord. in units of alat)
               a(1) = (   0.500000  -0.451541   0.000000 )  
               a(2) = (   0.500000   0.451541   0.000000 )  
               a(3) = (   0.000000   0.000000   1.011767 )  

     reciprocal axes: (cart. coord. in units 2 pi/alat)
               b(1) = (  1.000000 -1.107318  0.000000 )  
               b(2) = (  1.000000  1.107318  0.000000 )  
               b(3) = (  0.000000  0.000000  0.988370 )  


     PseudoPot. # 1 for H  read from file:
     /home/garima.iitr/.cache/.es/compmat/nagah4/H.pbe-rrkjus_psl.1.0.0.UPF
     MD5 check sum: 3f4114867bd07edc7f1424d066fc1888
     Pseudo is Ultrasoft, Zval =  1.0
     Generated using &quot;atomic&quot; code by A. Dal Corso  v.6.3MaX
     Using radial grid of  929 points,  2 beta functions with: 
                l(1) =   0
                l(2) =   0
     Q(r) pseudized with 0 coefficients 


     PseudoPot. # 2 for Ga read from file:
     /home/garima.iitr/.cache/.es/compmat/nagah4/Ga.pbe-dn-kjpaw_psl.1.0.0.UPF
     MD5 check sum: 50ce49cbf7e0a40ad8623bf41840a268
     Pseudo is Projector augmented-wave + core cor, Zval = 13.0
     Generated using &quot;atomic&quot; code by A. Dal Corso  v.6.3
     Shape of augmentation charge: PSQ
     Using radial grid of 1205 points,  6 beta functions with: 
                l(1) =   0
                l(2) =   0
                l(3) =   1
                l(4) =   1
                l(5) =   2
                l(6) =   2
     Q(r) pseudized with 0 coefficients 


     PseudoPot. # 3 for Na read from file:
     /home/garima.iitr/.cache/.es/compmat/nagah4/na_pbe_v1.5.uspp.F.UPF
     MD5 check sum: 44600605ef58000f06b90626533354dc
     Pseudo is Ultrasoft, Zval =  9.0
     Generated by new atomic code, or converted to UPF format
     Using radial grid of  819 points,  5 beta functions with: 
                l(1) =   0
                l(2) =   0
                l(3) =   1
                l(4) =   1
                l(5) =   2
     Q(r) pseudized with  8 coefficients,  rinner =    1.250   1.250   1.250
                                                       1.250   1.250

     atomic species   valence    mass     pseudopotential
        H              1.00     1.00750     H ( 1.00)
        Ga            13.00    69.72300     Ga( 1.00)
        Na             9.00    22.98900     Na( 1.00)

      8 Sym. Ops., with inversion, found ( 4 have fractional translation)



   Cartesian axes

     site n.     atom                  positions (alat units)
         1           Ga  tau(   1) = (   0.5000000  -0.3087393   0.7588249  )
         2           Ga  tau(   2) = (   0.5000000   0.3087393   0.2529416  )
         3           Na  tau(   3) = (   0.5000000  -0.1426142   0.2529416  )
         4           Na  tau(   4) = (   0.5000000   0.1426142   0.7588249  )
         5           H   tau(   5) = (   0.5000000  -0.1708362   0.5763575  )
         6           H   tau(   6) = (   0.5000000  -0.1708362   0.9412923  )
         7           H   tau(   7) = (   0.5000000   0.1708362   0.0704742  )
         8           H   tau(   8) = (   0.5000000   0.1708362   0.4354090  )
         9           H   tau(   9) = (   0.1848582   0.0074012   0.7588249  )
        10           H   tau(  10) = (   0.1848582  -0.0074012   0.2529416  )
        11           H   tau(  11) = (   0.8151418  -0.0074012   0.2529416  )
        12           H   tau(  12) = (   0.8151418   0.0074012   0.7588249  )

     number of k points=    52  Marzari-Vanderbilt smearing, width (Ry)=  0.0050
                       cart. coord. in units 2pi/alat
        k(    1) = (   0.0000000   0.0000000   0.0000000), wk =   0.0092593
        k(    2) = (   0.0000000   0.0000000   0.1647284), wk =   0.0185185
        k(    3) = (   0.0000000   0.0000000   0.3294568), wk =   0.0185185
        k(    4) = (   0.0000000   0.0000000  -0.4941852), wk =   0.0092593
        k(    5) = (   0.1666667   0.1845530   0.0000000), wk =   0.0370370
        k(    6) = (   0.1666667   0.1845530   0.1647284), wk =   0.0740741
        k(    7) = (   0.1666667   0.1845530   0.3294568), wk =   0.0740741
        k(    8) = (   0.1666667   0.1845530  -0.4941852), wk =   0.0370370
        k(    9) = (   0.3333333   0.3691060   0.0000000), wk =   0.0370370
        k(   10) = (   0.3333333   0.3691060   0.1647284), wk =   0.0740741
        k(   11) = (   0.3333333   0.3691060   0.3294568), wk =   0.0740741
        k(   12) = (   0.3333333   0.3691060  -0.4941852), wk =   0.0370370
        k(   13) = (  -0.5000000  -0.5536591   0.0000000), wk =   0.0185185
        k(   14) = (  -0.5000000  -0.5536591   0.1647284), wk =   0.0370370
        k(   15) = (  -0.5000000  -0.5536591   0.3294568), wk =   0.0370370
        k(   16) = (  -0.5000000  -0.5536591  -0.4941852), wk =   0.0185185
        k(   17) = (   0.3333333   0.0000000   0.0000000), wk =   0.0185185
        k(   18) = (   0.3333333   0.0000000   0.1647284), wk =   0.0370370
        k(   19) = (   0.3333333   0.0000000   0.3294568), wk =   0.0370370
        k(   20) = (   0.3333333   0.0000000  -0.4941852), wk =   0.0185185
        k(   21) = (   0.5000000   0.1845530   0.0000000), wk =   0.0370370
        k(   22) = (   0.5000000   0.1845530   0.1647284), wk =   0.0740741
        k(   23) = (   0.5000000   0.1845530   0.3294568), wk =   0.0740741
        k(   24) = (   0.5000000   0.1845530  -0.4941852), wk =   0.0370370
        k(   25) = (  -0.3333333  -0.7382121   0.0000000), wk =   0.0370370
        k(   26) = (  -0.3333333  -0.7382121   0.1647284), wk =   0.0740741
        k(   27) = (  -0.3333333  -0.7382121   0.3294568), wk =   0.0740741
        k(   28) = (  -0.3333333  -0.7382121  -0.4941852), wk =   0.0370370
        k(   29) = (  -0.1666667  -0.5536591   0.0000000), wk =   0.0370370
        k(   30) = (  -0.1666667  -0.5536591   0.1647284), wk =   0.0740741
        k(   31) = (  -0.1666667  -0.5536591   0.3294568), wk =   0.0740741
        k(   32) = (  -0.1666667  -0.5536591  -0.4941852), wk =   0.0370370
        k(   33) = (   0.0000000  -0.3691060   0.0000000), wk =   0.0185185
        k(   34) = (   0.0000000  -0.3691060   0.1647284), wk =   0.0370370
        k(   35) = (   0.0000000  -0.3691060   0.3294568), wk =   0.0370370
        k(   36) = (   0.0000000  -0.3691060  -0.4941852), wk =   0.0185185
        k(   37) = (   0.6666667   0.0000000   0.0000000), wk =   0.0185185
        k(   38) = (   0.6666667   0.0000000   0.1647284), wk =   0.0370370
        k(   39) = (   0.6666667   0.0000000   0.3294568), wk =   0.0370370
        k(   40) = (   0.6666667   0.0000000  -0.4941852), wk =   0.0185185
        k(   41) = (  -0.1666667  -0.9227651   0.0000000), wk =   0.0370370
        k(   42) = (  -0.1666667  -0.9227651   0.1647284), wk =   0.0740741
        k(   43) = (  -0.1666667  -0.9227651   0.3294568), wk =   0.0740741
        k(   44) = (  -0.1666667  -0.9227651  -0.4941852), wk =   0.0370370
        k(   45) = (  -0.0000000  -0.7382121   0.0000000), wk =   0.0185185
        k(   46) = (  -0.0000000  -0.7382121   0.1647284), wk =   0.0370370
        k(   47) = (  -0.0000000  -0.7382121   0.3294568), wk =   0.0370370
        k(   48) = (  -0.0000000  -0.7382121  -0.4941852), wk =   0.0185185
        k(   49) = (  -1.0000000   0.0000000   0.0000000), wk =   0.0092593
        k(   50) = (  -1.0000000   0.0000000   0.1647284), wk =   0.0185185
        k(   51) = (  -1.0000000   0.0000000   0.3294568), wk =   0.0185185
        k(   52) = (  -1.0000000   0.0000000  -0.4941852), wk =   0.0092593

     Dense  grid:   127907 G-vectors     FFT dimensions: (  60,  60,  90)

     Smooth grid:    91433 G-vectors     FFT dimensions: (  50,  50,  80)

     Estimated max dynamical RAM per process >      17.11 MB

     Estimated total dynamical RAM >       2.31 GB

     Initial potential from superposition of free atoms

     starting charge      51.9814, renormalised to      52.0000
     Starting wfcs are   36 randomized atomic wfcs
     Checking if some PAW data can be deallocated... 

     total cpu time spent up to now is        1.0 secs

     Self-consistent Calculation

     iteration #  1     ecut=    75.00 Ry     beta= 0.70
     Davidson diagonalization with overlap
     ethr =  1.00E-02,  avg # of iterations =  4.3

     Threshold (ethr) on eigenvalues was too large:
     Diagonalizing with lowered threshold

     Davidson diagonalization with overlap
     ethr =  8.36E-04,  avg # of iterations =  5.6

     total cpu time spent up to now is        2.1 secs

     total energy              =    -755.87804427 Ry
     estimated scf accuracy    <       0.46792926 Ry

     iteration #  2     ecut=    75.00 Ry     beta= 0.70
     Davidson diagonalization with overlap
     ethr =  9.00E-04,  avg # of iterations =  2.1

     total cpu time spent up to now is        2.6 secs

     total energy              =    -755.92647886 Ry
     estimated scf accuracy    <       0.00873919 Ry

     iteration #  3     ecut=    75.00 Ry     beta= 0.70
     Davidson diagonalization with overlap
     c_bands:  1 eigenvalues not converged
     ethr =  1.68E-05,  avg # of iterations = 14.8

     total cpu time spent up to now is        3.7 secs

     total energy              =    -755.96373467 Ry
     estimated scf accuracy    <       0.00545318 Ry

     iteration #  4     ecut=    75.00 Ry     beta= 0.70
     Davidson diagonalization with overlap
     ethr =  1.05E-05,  avg # of iterations =  2.2

     total cpu time spent up to now is        4.1 secs

     total energy              =    -755.96390448 Ry
     estimated scf accuracy    <       0.00193864 Ry

     iteration #  5     ecut=    75.00 Ry     beta= 0.70
     Davidson diagonalization with overlap
     ethr =  3.73E-06,  avg # of iterations =  5.4

     total cpu time spent up to now is        4.7 secs

     total energy              =    -755.96408225 Ry
     estimated scf accuracy    <       0.00001023 Ry

     iteration #  6     ecut=    75.00 Ry     beta= 0.70
     Davidson diagonalization with overlap
     c_bands:  1 eigenvalues not converged
     ethr =  1.97E-08,  avg # of iterations = 17.2

     total cpu time spent up to now is        6.5 secs

     total energy              =    -755.96425306 Ry
     estimated scf accuracy    <       0.00000402 Ry

     iteration #  7     ecut=    75.00 Ry     beta= 0.70
     Davidson diagonalization with overlap
     ethr =  7.73E-09,  avg # of iterations =  2.0

     total cpu time spent up to now is        6.9 secs

     total energy              =    -755.96425099 Ry
     estimated scf accuracy    <       0.00000478 Ry

     iteration #  8     ecut=    75.00 Ry     beta= 0.70
     Davidson diagonalization with overlap
     ethr =  7.73E-09,  avg # of iterations =  2.3

     total cpu time spent up to now is        7.3 secs

     total energy              =    -755.96425111 Ry
     estimated scf accuracy    <       0.00000050 Ry

     iteration #  9     ecut=    75.00 Ry     beta= 0.70
     Davidson diagonalization with overlap
     ethr =  9.69E-10,  avg # of iterations =  8.1

     total cpu time spent up to now is        8.1 secs

     total energy              =    -755.96425168 Ry
     estimated scf accuracy    <       0.00000035 Ry

     iteration # 10     ecut=    75.00 Ry     beta= 0.70
     Davidson diagonalization with overlap
     ethr =  6.66E-10,  avg # of iterations =  1.3

     total cpu time spent up to now is        8.5 secs

     total energy              =    -755.96425162 Ry
     estimated scf accuracy    <       0.00000046 Ry

     iteration # 11     ecut=    75.00 Ry     beta= 0.70
     Davidson diagonalization with overlap
     ethr =  6.66E-10,  avg # of iterations =  1.0

     total cpu time spent up to now is        8.9 secs

     total energy              =    -755.96425162 Ry
     estimated scf accuracy    <       0.00000011 Ry

     iteration # 12     ecut=    75.00 Ry     beta= 0.70
     Davidson diagonalization with overlap
     ethr =  2.14E-10,  avg # of iterations =  2.7

     total cpu time spent up to now is        9.3 secs

     total energy              =    -755.96425162 Ry
     estimated scf accuracy    <       0.00000003 Ry

     iteration # 13     ecut=    75.00 Ry     beta= 0.70
     Davidson diagonalization with overlap
     ethr =  6.38E-11,  avg # of iterations =  6.6

     total cpu time spent up to now is       10.0 secs

     total energy              =    -755.96425163 Ry
     estimated scf accuracy    <       0.00000004 Ry

     iteration # 14     ecut=    75.00 Ry     beta= 0.70
     Davidson diagonalization with overlap
     ethr =  6.38E-11,  avg # of iterations =  1.2

     total cpu time spent up to now is       10.5 secs

     End of self-consistent calculation

          k = 0.0000 0.0000 0.0000 ( 11443 PWs)   bands (ev):

   -50.0315 -50.0313 -21.9541 -21.9528 -21.9524 -21.9520 -21.9516 -21.9444
   -12.2499 -12.2493 -12.2474 -12.2429 -12.2342 -12.2316 -12.1100 -12.1075
   -12.0948 -12.0930  -6.5062  -5.5274  -2.0195  -0.8074  -0.7056  -0.6287
    -0.2479  -0.1973   4.7175   5.0607   5.7726   6.2688   6.4375

          k = 0.0000 0.0000 0.1647 ( 11427 PWs)   bands (ev):

   -50.0315 -50.0313 -21.9542 -21.9537 -21.9519 -21.9517 -21.9511 -21.9448
   -12.2498 -12.2492 -12.2476 -12.2437 -12.2336 -12.2315 -12.1098 -12.1076
   -12.0947 -12.0931  -6.4551  -5.6156  -1.8943  -0.7872  -0.7010  -0.6049
    -0.3361  -0.2752   4.8510   5.1116   5.5171   6.1358   6.7065

          k = 0.0000 0.0000 0.3295 ( 11427 PWs)   bands (ev):

   -50.0315 -50.0314 -21.9543 -21.9543 -21.9519 -21.9517 -21.9493 -21.9459
   -12.2493 -12.2486 -12.2481 -12.2456 -12.2325 -12.2314 -12.1094 -12.1081
   -12.0943 -12.0934  -6.3083  -5.8321  -1.5676  -0.7421  -0.7137  -0.6701
    -0.5386  -0.3484   5.1003   5.2654   5.2852   5.8352   6.6974

          k = 0.0000 0.0000-0.4942 ( 11420 PWs)   bands (ev):

   -50.0314 -50.0314 -21.9544 -21.9544 -21.9518 -21.9518 -21.9475 -21.9475
   -12.2487 -12.2487 -12.2474 -12.2474 -12.2317 -12.2317 -12.1087 -12.1087
   -12.0939 -12.0939  -6.0867  -6.0867  -1.1357  -1.1357  -0.7041  -0.7041
    -0.4452  -0.4452   5.2102   5.2102   5.5169   5.5169   7.0105

          k = 0.1667 0.1846 0.0000 ( 11432 PWs)   bands (ev):

   -50.0315 -50.0313 -21.9545 -21.9533 -21.9523 -21.9522 -21.9518 -21.9444
   -12.2491 -12.2480 -12.2456 -12.2435 -12.2337 -12.2311 -12.1100 -12.1073
   -12.0954 -12.0928  -6.3862  -5.4766  -1.9103  -1.4111  -0.7481  -0.5888
    -0.3442  -0.3186   4.7224   5.5907   5.8475   6.4242   6.6562

          k = 0.1667 0.1846 0.1647 ( 11429 PWs)   bands (ev):

   -50.0315 -50.0313 -21.9545 -21.9540 -21.9522 -21.9519 -21.9510 -21.9448
   -12.2490 -12.2478 -12.2458 -12.2443 -12.2331 -12.2309 -12.1098 -12.1075
   -12.0952 -12.0930  -6.3373  -5.5551  -1.8452  -1.3455  -0.7979  -0.5881
    -0.3750  -0.3546   4.8471   5.6708   5.7021   6.4326   6.5406

          k = 0.1667 0.1846 0.3295 ( 11449 PWs)   bands (ev):

   -50.0315 -50.0314 -21.9547 -21.9546 -21.9522 -21.9520 -21.9493 -21.9459
   -12.2487 -12.2474 -12.2463 -12.2460 -12.2319 -12.2307 -12.1093 -12.1079
   -12.0947 -12.0934  -6.1973  -5.7517  -1.6700  -1.2668  -0.8780  -0.5506
    -0.5120  -0.3986   5.1245   5.5169   5.8951   6.2588   6.4310

          k = 0.1667 0.1846-0.4942 ( 11436 PWs)   bands (ev):

   -50.0314 -50.0314 -21.9548 -21.9548 -21.9521 -21.9521 -21.9474 -21.9474
   -12.2477 -12.2477 -12.2468 -12.2468 -12.2310 -12.2310 -12.1086 -12.1086
   -12.0941 -12.0941  -5.9880  -5.9880  -1.4342  -1.4342  -0.7310  -0.7310
    -0.4649  -0.4649   5.3677   5.3677   6.0641   6.0642   6.7033

          k = 0.3333 0.3691 0.0000 ( 11432 PWs)   bands (ev):

   -50.0315 -50.0313 -21.9553 -21.9545 -21.9523 -21.9521 -21.9521 -21.9445
   -12.2483 -12.2450 -12.2445 -12.2428 -12.2320 -12.2295 -12.1098 -12.1070
   -12.0962 -12.0926  -6.0750  -5.4109  -2.1714  -1.6078  -1.2594  -0.6509
    -0.6104  -0.3064   5.0098   5.6607   6.4402   6.4936   7.1555

          k = 0.3333 0.3691 0.1647 ( 11430 PWs)   bands (ev):

   -50.0315 -50.0313 -21.9554 -21.9550 -21.9525 -21.9521 -21.9509 -21.9449
   -12.2485 -12.2458 -12.2443 -12.2428 -12.2314 -12.2293 -12.1096 -12.1071
   -12.0960 -12.0929  -6.0343  -5.4583  -2.2192  -1.6485  -1.2046  -0.6310
    -0.5541  -0.3139   5.0598   5.7385   6.2639   6.4003   7.2080

          k = 0.3333 0.3691 0.3295 ( 11443 PWs)   bands (ev):

   -50.0315 -50.0314 -21.9556 -21.9555 -21.9525 -21.9522 -21.9492 -21.9459
   -12.2487 -12.2472 -12.2440 -12.2431 -12.2303 -12.2291 -12.1091 -12.1077
   -12.0953 -12.0935  -5.9200  -5.5866  -2.2281  -1.8749  -0.9581  -0.6247
    -0.4779  -0.3371   5.2238   5.8450   6.0550   6.1723   7.2579

          k = 0.3333 0.3691-0.4942 ( 11432 PWs)   bands (ev):

   -50.0314 -50.0314 -21.9557 -21.9557 -21.9524 -21.9524 -21.9474 -21.9474
   -12.2483 -12.2483 -12.2435 -12.2435 -12.2293 -12.2293 -12.1084 -12.1084
   -12.0944 -12.0944  -5.7570  -5.7570  -2.1049  -2.1049  -0.7292  -0.7292
    -0.3987  -0.3987   5.5213   5.5213   6.1123   6.1123   7.3849

          k =-0.5000-0.5537 0.0000 ( 11426 PWs)   bands (ev):

   -50.0315 -50.0313 -21.9557 -21.9552 -21.9523 -21.9522 -21.9520 -21.9446
   -12.2472 -12.2465 -12.2430 -12.2418 -12.2307 -12.2285 -12.1098 -12.1068
   -12.0966 -12.0926  -5.8259  -5.4538  -2.4732  -1.5808  -1.2858  -0.9904
    -0.5876  -0.2836   5.2660   5.8755   6.0836   6.5142   7.1732

          k =-0.5000-0.5537 0.1647 ( 11448 PWs)   bands (ev):

   -50.0315 -50.0313 -21.9558 -21.9556 -21.9526 -21.9522 -21.9509 -21.9449
   -12.2476 -12.2470 -12.2428 -12.2418 -12.2302 -12.2283 -12.1096 -12.1070
   -12.0963 -12.0929  -5.7967  -5.4712  -2.5105  -1.8643  -1.0336  -0.9097
    -0.5509  -0.2921   5.3139   5.8397   5.8741   6.5041   7.4809

          k =-0.5000-0.5537 0.3295 ( 11426 PWs)   bands (ev):

   -50.0315 -50.0313 -21.9561 -21.9561 -21.9526 -21.9523 -21.9491 -21.9459
   -12.2483 -12.2480 -12.2425 -12.2418 -12.2291 -12.2280 -12.1090 -12.1075
   -12.0956 -12.0936  -5.7182  -5.5266  -2.5381  -2.2075  -0.7926  -0.7768
    -0.4500  -0.3131   5.4091   5.5677   5.9126   6.3301   7.6985

          k =-0.5000-0.5537-0.4942 ( 11416 PWs)   bands (ev):

   -50.0314 -50.0314 -21.9562 -21.9562 -21.9524 -21.9524 -21.9474 -21.9474
   -12.2486 -12.2486 -12.2421 -12.2421 -12.2282 -12.2282 -12.1083 -12.1083
   -12.0946 -12.0946  -5.6168  -5.6168  -2.4457  -2.4457  -0.7175  -0.7175
    -0.3544  -0.3544   5.4626   5.4626   6.0772   6.0772   7.8818

          k = 0.3333 0.0000 0.0000 ( 11448 PWs)   bands (ev):

   -50.0315 -50.0313 -21.9546 -21.9533 -21.9526 -21.9522 -21.9521 -21.9445
   -12.2496 -12.2461 -12.2437 -12.2433 -12.2337 -12.2300 -12.1105 -12.1077
   -12.0957 -12.0928  -6.2996  -5.4048  -1.8654  -1.4544  -1.0869  -0.5946
    -0.5799  -0.2948   4.8081   5.7587   5.8666   6.4328   6.6414

          k = 0.3333 0.0000 0.1647 ( 11431 PWs)   bands (ev):

   -50.0315 -50.0313 -21.9547 -21.9540 -21.9526 -21.9522 -21.9510 -21.9448
   -12.2495 -12.2459 -12.2441 -12.2438 -12.2331 -12.2300 -12.1103 -12.1079
   -12.0955 -12.0930  -6.2514  -5.4818  -1.7770  -1.4225  -1.0765  -0.6362
    -0.6044  -0.3603   4.9605   5.7005   5.8919   6.4825   6.9270

          k = 0.3333 0.0000 0.3295 ( 11435 PWs)   bands (ev):

   -50.0315 -50.0314 -21.9548 -21.9546 -21.9525 -21.9523 -21.9492 -21.9459
   -12.2488 -12.2458 -12.2455 -12.2443 -12.2319 -12.2302 -12.1097 -12.1083
   -12.0950 -12.0935  -6.1134  -5.6750  -1.5452  -1.3390  -1.0891  -0.8505
    -0.5950  -0.4570   5.3172   5.6732   6.0028   6.4560   7.0717

          k = 0.3333 0.0000-0.4942 ( 11414 PWs)   bands (ev):

   -50.0314 -50.0314 -21.9548 -21.9548 -21.9524 -21.9524 -21.9474 -21.9474
   -12.2476 -12.2476 -12.2449 -12.2449 -12.2308 -12.2308 -12.1090 -12.1090
   -12.0942 -12.0942  -5.9074  -5.9074  -1.2937  -1.2937  -1.1087  -1.1087
    -0.5345  -0.5345   5.6278   5.6278   6.1919   6.1920   6.9667

          k = 0.5000 0.1846 0.0000 ( 11443 PWs)   bands (ev):

   -50.0315 -50.0313 -21.9553 -21.9543 -21.9528 -21.9525 -21.9520 -21.9445
   -12.2495 -12.2442 -12.2423 -12.2405 -12.2326 -12.2285 -12.1106 -12.1076
   -12.0966 -12.0926  -6.0216  -5.3065  -2.0892  -1.6357  -1.2973  -0.8997
    -0.6743  -0.5013   5.0485   5.6797   5.9584   6.4713   7.0974

          k = 0.5000 0.1846 0.1647 ( 11449 PWs)   bands (ev):

   -50.0315 -50.0313 -21.9554 -21.9548 -21.9530 -21.9525 -21.9509 -21.9449
   -12.2494 -12.2449 -12.2422 -12.2406 -12.2320 -12.2285 -12.1104 -12.1078
   -12.0964 -12.0928  -5.9795  -5.3608  -2.1090  -1.6044  -1.2986  -0.8737
    -0.6846  -0.5244   5.1426   5.7330   6.0383   6.6404   6.8270

          k = 0.5000 0.1846 0.3295 ( 11440 PWs)   bands (ev):

   -50.0315 -50.0313 -21.9555 -21.9553 -21.9530 -21.9527 -21.9492 -21.9459
   -12.2490 -12.2464 -12.2418 -12.2409 -12.2308 -12.2288 -12.1098 -12.1083
   -12.0956 -12.0936  -5.8607  -5.5043  -2.0769  -1.7350  -1.1346  -0.8224
    -0.7202  -0.5998   5.3958   5.9708   6.1229   6.5954   6.9617

          k = 0.5000 0.1846-0.4942 ( 11436 PWs)   bands (ev):

   -50.0314 -50.0314 -21.9556 -21.9556 -21.9528 -21.9528 -21.9474 -21.9474
   -12.2480 -12.2480 -12.2414 -12.2414 -12.2295 -12.2295 -12.1091 -12.1091
   -12.0946 -12.0946  -5.6887  -5.6887  -1.9380  -1.9380  -0.9173  -0.9173
    -0.6877  -0.6877   5.7695   5.7695   6.4266   6.4266   7.0542

          k =-0.3333-0.7382 0.0000 ( 11454 PWs)   bands (ev):

   -50.0315 -50.0313 -21.9558 -21.9551 -21.9529 -21.9526 -21.9519 -21.9446
   -12.2485 -12.2455 -12.2406 -12.2395 -12.2315 -12.2279 -12.1103 -12.1072
   -12.0971 -12.0924  -5.7511  -5.3598  -2.4004  -1.5836  -1.3097  -0.9624
    -0.8739  -0.6524   5.3216   5.9287   5.9912   6.3939   7.0183

          k =-0.3333-0.7382 0.1647 ( 11440 PWs)   bands (ev):

   -50.0315 -50.0313 -21.9558 -21.9554 -21.9531 -21.9526 -21.9509 -21.9449
   -12.2487 -12.2461 -12.2404 -12.2394 -12.2309 -12.2278 -12.1101 -12.1074
   -12.0968 -12.0927  -5.7215  -5.3797  -2.4279  -1.8125  -1.1092  -0.9864
    -0.7731  -0.6579   5.3421   5.8295   6.0058   6.5645   7.0944

          k =-0.3333-0.7382 0.3295 ( 11431 PWs)   bands (ev):

   -50.0314 -50.0313 -21.9560 -21.9559 -21.9531 -21.9527 -21.9491 -21.9459
   -12.2489 -12.2474 -12.2402 -12.2395 -12.2297 -12.2279 -12.1095 -12.1079
   -12.0959 -12.0936  -5.6416  -5.4409  -2.4398  -2.1168  -0.9561  -0.8904
    -0.7178  -0.6164   5.4240   5.7826   6.1500   6.6384   7.1476

          k =-0.3333-0.7382-0.4942 ( 11426 PWs)   bands (ev):

   -50.0314 -50.0314 -21.9561 -21.9561 -21.9529 -21.9529 -21.9473 -21.9473
   -12.2485 -12.2485 -12.2398 -12.2398 -12.2285 -12.2285 -12.1087 -12.1087
   -12.0948 -12.0948  -5.5367  -5.5367  -2.3420  -2.3420  -0.8875  -0.8875
    -0.6320  -0.6320   5.6278   5.6278   6.4326   6.4327   7.2143

          k =-0.1667-0.5537 0.0000 ( 11420 PWs)   bands (ev):

   -50.0315 -50.0313 -21.9554 -21.9546 -21.9530 -21.9524 -21.9520 -21.9446
   -12.2472 -12.2465 -12.2421 -12.2404 -12.2325 -12.2293 -12.1098 -12.1068
   -12.0968 -12.0924  -5.9235  -5.3864  -2.1280  -1.4187  -1.2856  -1.0954
    -0.8255  -0.5926   5.2986   5.9586   6.6216   6.6688   7.1253

          k =-0.1667-0.5537 0.1647 ( 11428 PWs)   bands (ev):

   -50.0315 -50.0313 -21.9555 -21.9550 -21.9531 -21.9525 -21.9509 -21.9449
   -12.2476 -12.2470 -12.2420 -12.2405 -12.2318 -12.2291 -12.1096 -12.1070
   -12.0965 -12.0927  -5.8876  -5.4204  -2.1746  -1.6048  -1.2186  -0.9887
    -0.7592  -0.5701   5.3823   5.9283   6.2698   7.1148   7.1495

          k =-0.1667-0.5537 0.3295 ( 11422 PWs)   bands (ev):

   -50.0315 -50.0313 -21.9557 -21.9556 -21.9530 -21.9526 -21.9492 -21.9459
   -12.2483 -12.2480 -12.2416 -12.2408 -12.2305 -12.2289 -12.1091 -12.1076
   -12.0957 -12.0935  -5.7887  -5.5165  -2.2040  -1.8875  -1.1224  -0.9057
    -0.6439  -0.4899   5.5787   5.8414   6.1744   6.7696   7.2295

          k =-0.1667-0.5537-0.4942 ( 11436 PWs)   bands (ev):

   -50.0314 -50.0314 -21.9558 -21.9558 -21.9528 -21.9528 -21.9474 -21.9474
   -12.2485 -12.2485 -12.2412 -12.2412 -12.2293 -12.2293 -12.1083 -12.1083
   -12.0946 -12.0946  -5.6521  -5.6521  -2.1086  -2.1086  -1.0021  -1.0021
    -0.4996  -0.4996   5.7588   5.7588   6.3070   6.3070   7.4546

          k = 0.0000-0.3691 0.0000 ( 11429 PWs)   bands (ev):

   -50.0315 -50.0313 -21.9547 -21.9536 -21.9527 -21.9522 -21.9521 -21.9445
   -12.2482 -12.2459 -12.2448 -12.2436 -12.2334 -12.2309 -12.1097 -12.1069
   -12.0960 -12.0925  -6.2405  -5.4431  -1.7488  -1.5629  -1.0966  -0.6355
    -0.5758  -0.5175   5.0254   5.9718   6.0480   6.9898   7.2022

          k = 0.0000-0.3691 0.1647 ( 11427 PWs)   bands (ev):

   -50.0315 -50.0313 -21.9548 -21.9543 -21.9526 -21.9521 -21.9510 -21.9448
   -12.2484 -12.2457 -12.2455 -12.2438 -12.2328 -12.2307 -12.1095 -12.1070
   -12.0957 -12.0928  -6.1951  -5.5067  -1.8188  -1.4326  -1.0653  -0.7715
    -0.6150  -0.4060   5.1757   5.9894   6.0113   6.7339   6.9389

          k = 0.0000-0.3691 0.3295 ( 11413 PWs)   bands (ev):

   -50.0315 -50.0314 -21.9550 -21.9549 -21.9525 -21.9522 -21.9492 -21.9459
   -12.2485 -12.2470 -12.2453 -12.2442 -12.2315 -12.2303 -12.1089 -12.1075
   -12.0951 -12.0934  -6.0665  -5.6714  -1.8009  -1.4536  -0.9777  -0.7213
    -0.7184  -0.3798   5.5755   5.9341   6.1329   6.3370   6.6122

          k = 0.0000-0.3691-0.4942 ( 11434 PWs)   bands (ev):

   -50.0314 -50.0314 -21.9551 -21.9551 -21.9524 -21.9524 -21.9474 -21.9474
   -12.2482 -12.2482 -12.2448 -12.2448 -12.2305 -12.2305 -12.1082 -12.1082
   -12.0942 -12.0942  -5.8779  -5.8779  -1.6523  -1.6523  -0.8520  -0.8520
    -0.5068  -0.5068   5.9641   5.9643   6.2531   6.2538   6.3366

          k = 0.6667 0.0000 0.0000 ( 11464 PWs)   bands (ev):

   -50.0315 -50.0313 -21.9556 -21.9542 -21.9540 -21.9531 -21.9519 -21.9446
   -12.2502 -12.2442 -12.2382 -12.2361 -12.2331 -12.2272 -12.1114 -12.1081
   -12.0976 -12.0923  -5.8002  -5.1467  -2.0952  -1.5234  -1.5171  -1.3983
    -1.1389  -0.4777   4.7983   5.1739   5.8124   6.7544   6.9122

          k = 0.6667 0.0000 0.1647 ( 11462 PWs)   bands (ev):

   -50.0315 -50.0313 -21.9556 -21.9547 -21.9540 -21.9532 -21.9509 -21.9449
   -12.2500 -12.2449 -12.2380 -12.2362 -12.2325 -12.2275 -12.1111 -12.1083
   -12.0972 -12.0927  -5.7611  -5.1957  -2.0543  -1.5725  -1.4979  -1.3991
    -1.1096  -0.5583   5.0108   5.2309   5.9941   6.8526   6.9142

          k = 0.6667 0.0000 0.3295 ( 11441 PWs)   bands (ev):

   -50.0314 -50.0313 -21.9557 -21.9554 -21.9538 -21.9534 -21.9491 -21.9459
   -12.2493 -12.2464 -12.2376 -12.2366 -12.2310 -12.2282 -12.1105 -12.1089
   -12.0963 -12.0936  -5.6512  -5.3253  -1.9391  -1.6089  -1.5483  -1.4177
    -1.0197  -0.7361   5.4950   5.5622   6.4265   6.7762   6.8375

          k = 0.6667 0.0000-0.4942 ( 11446 PWs)   bands (ev):

   -50.0314 -50.0314 -21.9557 -21.9557 -21.9536 -21.9536 -21.9474 -21.9474
   -12.2481 -12.2481 -12.2371 -12.2371 -12.2294 -12.2294 -12.1097 -12.1097
   -12.0949 -12.0949  -5.4932  -5.4932  -1.7742  -1.7742  -1.4795  -1.4795
    -0.8998  -0.8998   5.9789   5.9789   6.3861   6.3861   6.9230

          k =-0.1667-0.9228 0.0000 ( 11444 PWs)   bands (ev):

   -50.0315 -50.0313 -21.9559 -21.9548 -21.9541 -21.9533 -21.9518 -21.9446
   -12.2500 -12.2449 -12.2360 -12.2348 -12.2325 -12.2268 -12.1113 -12.1080
   -12.0981 -12.0922  -5.5792  -5.1419  -2.2526  -1.7646  -1.5339  -1.3199
    -1.2142  -0.6662   4.6894   5.2594   5.6062   6.2923   7.3499

          k =-0.1667-0.9228 0.1647 ( 11447 PWs)   bands (ev):

   -50.0315 -50.0313 -21.9559 -21.9552 -21.9542 -21.9533 -21.9508 -21.9449
   -12.2499 -12.2455 -12.2359 -12.2347 -12.2320 -12.2270 -12.1111 -12.1082
   -12.0977 -12.0926  -5.5488  -5.1683  -2.2461  -1.7883  -1.5760  -1.2989
    -1.2009  -0.6889   4.8362   5.2756   5.9192   6.4607   7.2779

          k =-0.1667-0.9228 0.3295 ( 11429 PWs)   bands (ev):

   -50.0314 -50.0313 -21.9561 -21.9558 -21.9540 -21.9535 -21.9491 -21.9459
   -12.2494 -12.2469 -12.2356 -12.2348 -12.2307 -12.2277 -12.1104 -12.1088
   -12.0966 -12.0936  -5.4658  -5.2440  -2.2016  -1.9133  -1.5696  -1.3619
    -1.0774  -0.7713   5.2317   5.6058   6.3954   6.6775   7.1336

          k =-0.1667-0.9228-0.4942 ( 11424 PWs)   bands (ev):

   -50.0314 -50.0314 -21.9561 -21.9561 -21.9538 -21.9538 -21.9473 -21.9473
   -12.2484 -12.2484 -12.2352 -12.2352 -12.2290 -12.2290 -12.1096 -12.1096
   -12.0951 -12.0951  -5.3532  -5.3532  -2.0844  -2.0844  -1.4740  -1.4740
    -0.9131  -0.9131   5.8146   5.8146   6.3043   6.3043   7.3782

          k =-0.0000-0.7382 0.0000 ( 11416 PWs)   bands (ev):

   -50.0315 -50.0313 -21.9557 -21.9545 -21.9540 -21.9530 -21.9518 -21.9446
   -12.2487 -12.2458 -12.2377 -12.2360 -12.2332 -12.2280 -12.1106 -12.1073
   -12.0977 -12.0922  -5.6515  -5.2812  -2.0533  -1.7809  -1.3215  -1.1952
    -1.1258  -0.9179   4.9095   5.9032   6.0362   6.3990   7.4297

          k =-0.0000-0.7382 0.1647 ( 11440 PWs)   bands (ev):

   -50.0315 -50.0313 -21.9558 -21.9550 -21.9540 -21.9531 -21.9509 -21.9449
   -12.2488 -12.2463 -12.2376 -12.2361 -12.2325 -12.2280 -12.1103 -12.1076
   -12.0974 -12.0926  -5.6234  -5.3003  -2.0921  -1.7431  -1.5791  -1.1773
    -0.9780  -0.8336   5.0103   5.7347   6.4718   6.5431   7.1675

          k =-0.0000-0.7382 0.3295 ( 11433 PWs)   bands (ev):

   -50.0314 -50.0313 -21.9559 -21.9557 -21.9538 -21.9533 -21.9491 -21.9459
   -12.2490 -12.2476 -12.2373 -12.2364 -12.2309 -12.2283 -12.1097 -12.1081
   -12.0963 -12.0936  -5.5478  -5.3585  -2.1270  -1.8615  -1.6361  -1.3112
    -0.7834  -0.7014   5.2630   5.9596   6.4299   6.9165   6.9254

          k =-0.0000-0.7382-0.4942 ( 11418 PWs)   bands (ev):

   -50.0314 -50.0314 -21.9560 -21.9560 -21.9535 -21.9535 -21.9473 -21.9473
   -12.2486 -12.2486 -12.2369 -12.2369 -12.2293 -12.2293 -12.1089 -12.1089
   -12.0949 -12.0949  -5.4489  -5.4489  -2.0568  -2.0568  -1.4803  -1.4803
    -0.6777  -0.6777   5.7179   5.7179   6.5648   6.5648   7.3425

          k =-1.0000 0.0000 0.0000 ( 11478 PWs)   bands (ev):

   -50.0315 -50.0313 -21.9560 -21.9547 -21.9546 -21.9535 -21.9517 -21.9446
   -12.2505 -12.2447 -12.2338 -12.2334 -12.2321 -12.2262 -12.1118 -12.1084
   -12.0985 -12.0921  -5.4782  -5.0115  -2.1925  -2.0557  -1.6997  -1.3594
    -1.3162  -0.5638   4.4928   4.9545   5.1736   5.9864   8.5661

          k =-1.0000 0.0000 0.1647 ( 11466 PWs)   bands (ev):

   -50.0315 -50.0313 -21.9561 -21.9552 -21.9546 -21.9536 -21.9508 -21.9449
   -12.2503 -12.2453 -12.2336 -12.2327 -12.2322 -12.2266 -12.1116 -12.1086
   -12.0981 -12.0925  -5.4475  -5.0424  -2.1572  -2.0160  -1.7320  -1.4149
    -1.2972  -0.6563   4.7134   4.9975   5.4795   6.1620   8.2729

          k =-1.0000 0.0000 0.3295 ( 11428 PWs)   bands (ev):

   -50.0314 -50.0313 -21.9562 -21.9558 -21.9544 -21.9538 -21.9491 -21.9459
   -12.2496 -12.2468 -12.2334 -12.2325 -12.2311 -12.2276 -12.1109 -12.1092
   -12.0969 -12.0937  -5.3627  -5.1279  -2.0612  -1.9033  -1.8151  -1.5585
    -1.2315  -0.8702   5.2733   5.3219   6.1187   6.6517   7.5505

          k =-1.0000 0.0000-0.4942 ( 11408 PWs)   bands (ev):

   -50.0314 -50.0314 -21.9561 -21.9561 -21.9541 -21.9541 -21.9473 -21.9473
   -12.2484 -12.2484 -12.2329 -12.2329 -12.2292 -12.2292 -12.1100 -12.1100
   -12.0953 -12.0953  -5.2456  -5.2456  -1.9339  -1.9339  -1.7384  -1.7384
    -1.0877  -1.0877   5.7017   5.7017   6.7297   6.7298   7.1639

     the Fermi energy is     1.7516 ev

!    total energy              =    -755.96425163 Ry
     estimated scf accuracy    <          3.9E-09 Ry
     smearing contrib. (-TS)   =       0.00000000 Ry
     internal energy E=F+TS    =    -755.96425163 Ry

     The total energy is F=E-TS. E is the sum of the following terms:
     one-electron contribution =    -440.67539622 Ry
     hartree contribution      =     246.60565332 Ry
     xc contribution           =    -110.74723867 Ry
     ewald contribution        =    -228.45919441 Ry
     one-center paw contrib.   =    -222.68807564 Ry

     convergence has been achieved in  14 iterations

     Forces acting on atoms (cartesian axes, Ry/au):

     atom    1 type  2   force =     0.00000000    0.00003977    0.00000000
     atom    2 type  2   force =     0.00000000   -0.00003977    0.00000000
     atom    3 type  3   force =     0.00000000    0.00044761    0.00000000
     atom    4 type  3   force =     0.00000000   -0.00044761    0.00000000
     atom    5 type  1   force =     0.00000000   -0.00012006   -0.00005072
     atom    6 type  1   force =     0.00000000   -0.00012006    0.00005072
     atom    7 type  1   force =     0.00000000    0.00012006   -0.00005072
     atom    8 type  1   force =     0.00000000    0.00012006    0.00005072
     atom    9 type  1   force =     0.00014925    0.00012129    0.00000000
     atom   10 type  1   force =     0.00014925   -0.00012129    0.00000000
     atom   11 type  1   force =    -0.00014925   -0.00012129    0.00000000
     atom   12 type  1   force =    -0.00014925    0.00012129    0.00000000

     Total force =     0.000787     Total SCF correction =     0.000009


     Computing stress (Cartesian axis) and pressure

          total   stress  (Ry/bohr**3)                   (kbar)     P=        9.03
   0.00005381   0.00000000   0.00000000            7.92        0.00        0.00
   0.00000000   0.00007020   0.00000000            0.00       10.33        0.00
   0.00000000   0.00000000   0.00006011            0.00        0.00        8.84


     BFGS Geometry Optimization
     Energy error            =      0.0E+00 Ry
     Gradient error          =      4.5E-04 Ry/Bohr
     Cell gradient error     =      1.0E+01 kbar

     number of scf cycles    =   1
     number of bfgs steps    =   0

     enthalpy           new  =    -755.9642516300 Ry

     new trust radius        =       0.0113330367 bohr
     new conv_thr            =       0.0000000100 Ry

     new unit-cell volume =   1047.35186 a.u.^3 (   155.20153 Ang^3 )
     density =      2.07013 g/cm^3

CELL_PARAMETERS (alat= 13.16555183)
   0.500672684  -0.452333864   0.000000000
   0.500672684   0.452333864   0.000000000
   0.000000000   0.000000000   1.013286854

ATOMIC_POSITIONS (crystal)
Ga            0.8418692936        0.1581307064        0.7500000000
Ga            0.1581307064        0.8418692936        0.2500000000
Na            0.6578816708        0.3421183292        0.2500000000
Na            0.3421183292        0.6578816708        0.7500000000
H             0.6891801253        0.3108198747        0.5696508432
H             0.6891801253        0.3108198747        0.9303491568
H             0.3108198747        0.6891801253        0.0696508432
H             0.3108198747        0.6891801253        0.4303491568
H             0.1766638700        0.1930752683        0.7500000000
H             0.1930752683        0.1766638700        0.2500000000
H             0.8233361300        0.8069247317        0.2500000000
H             0.8069247317        0.8233361300        0.7500000000



     Writing config-only to output data dir ./nagah4.save/
     NEW-OLD atomic charge density approx. for the potential
     extrapolated charge   52.23853, renormalised to   52.00000

     total cpu time spent up to now is       11.3 secs

     Self-consistent Calculation

     iteration #  1     ecut=    75.00 Ry     beta= 0.70
     Davidson diagonalization with overlap
     ethr =  1.00E-06,  avg # of iterations = 14.8

     total cpu time spent up to now is       12.9 secs

     total energy              =    -755.94723575 Ry
     estimated scf accuracy    <       0.01709603 Ry

     iteration #  2     ecut=    75.00 Ry     beta= 0.70
     Davidson diagonalization with overlap
     ethr =  3.29E-05,  avg # of iterations =  8.4

     total cpu time spent up to now is       13.7 secs

     total energy              =    -755.96478249 Ry
     estimated scf accuracy    <       0.03392612 Ry

     iteration #  3     ecut=    75.00 Ry     beta= 0.70
     Davidson diagonalization with overlap
     ethr =  3.29E-05,  avg # of iterations =  2.0

     total cpu time spent up to now is       14.1 secs

     total energy              =    -755.96499421 Ry
     estimated scf accuracy    <       0.01082657 Ry

     iteration #  4     ecut=    75.00 Ry     beta= 0.70
     Davidson diagonalization with overlap
     ethr =  2.08E-05,  avg # of iterations =  1.5

     total cpu time spent up to now is       14.5 secs

     total energy              =    -755.96468812 Ry
     estimated scf accuracy    <       0.00706822 Ry

     iteration #  5     ecut=    75.00 Ry     beta= 0.70
     Davidson diagonalization with overlap
     ethr =  1.36E-05,  avg # of iterations =  1.1

     total cpu time spent up to now is       14.9 secs

     total energy              =    -755.96314862 Ry
     estimated scf accuracy    <       0.00524160 Ry

     iteration #  6     ecut=    75.00 Ry     beta= 0.70
     Davidson diagonalization with overlap
     ethr =  1.01E-05,  avg # of iterations =  5.2

     total cpu time spent up to now is       15.4 secs

     total energy              =    -755.96412734 Ry
     estimated scf accuracy    <       0.00026493 Ry

     iteration #  7     ecut=    75.00 Ry     beta= 0.70
     Davidson diagonalization with overlap
     ethr =  5.09E-07,  avg # of iterations =  6.4

     total cpu time spent up to now is       16.1 secs

     total energy              =    -755.96460044 Ry
     estimated scf accuracy    <       0.00014559 Ry

     iteration #  8     ecut=    75.00 Ry     beta= 0.70
     Davidson diagonalization with overlap
     ethr =  2.80E-07,  avg # of iterations =  5.0

     total cpu time spent up to now is       16.7 secs

     total energy              =    -755.96467367 Ry
     estimated scf accuracy    <       0.00043208 Ry

     iteration #  9     ecut=    75.00 Ry     beta= 0.70
     Davidson diagonalization with overlap
     ethr =  2.80E-07,  avg # of iterations =  1.0

     total cpu time spent up to now is       17.1 secs

     total energy              =    -755.96466212 Ry
     estimated scf accuracy    <       0.00043576 Ry

     iteration # 10     ecut=    75.00 Ry     beta= 0.70
     Davidson diagonalization with overlap
     ethr =  2.80E-07,  avg # of iterations =  1.0

     total cpu time spent up to now is       17.4 secs

     total energy              =    -755.96460346 Ry
     estimated scf accuracy    <       0.00041011 Ry

     iteration # 11     ecut=    75.00 Ry     beta= 0.70
     Davidson diagonalization with overlap
     ethr =  2.80E-07,  avg # of iterations =  2.0

     total cpu time spent up to now is       17.9 secs

     total energy              =    -755.96462150 Ry
     estimated scf accuracy    <       0.00041735 Ry

     iteration # 12     ecut=    75.00 Ry     beta= 0.70
     Davidson diagonalization with overlap
     ethr =  2.80E-07,  avg # of iterations =  1.0

     total cpu time spent up to now is       18.3 secs

     total energy              =    -755.96455753 Ry
     estimated scf accuracy    <       0.00038630 Ry

     iteration # 13     ecut=    75.00 Ry     beta= 0.70
     Davidson diagonalization with overlap
     ethr =  2.80E-07,  avg # of iterations =  1.0

     total cpu time spent up to now is       18.6 secs

     total energy              =    -755.96448234 Ry
     estimated scf accuracy    <       0.00021050 Ry

     iteration # 14     ecut=    75.00 Ry     beta= 0.70
     Davidson diagonalization with overlap
     ethr =  2.80E-07,  avg # of iterations =  3.2

     total cpu time spent up to now is       19.1 secs

     total energy              =    -755.96449923 Ry
     estimated scf accuracy    <       0.00000899 Ry

     iteration # 15     ecut=    75.00 Ry     beta= 0.70
     Davidson diagonalization with overlap
     ethr =  1.73E-08,  avg # of iterations =  9.6

     total cpu time spent up to now is       20.0 secs

     total energy              =    -755.96454344 Ry
     estimated scf accuracy    <       0.00020838 Ry

     iteration # 16     ecut=    75.00 Ry     beta= 0.70
     Davidson diagonalization with overlap
     ethr =  1.73E-08,  avg # of iterations =  1.9

     total cpu time spent up to now is       20.4 secs

     total energy              =    -755.96451494 Ry
     estimated scf accuracy    <       0.00015145 Ry

     iteration # 17     ecut=    75.00 Ry     beta= 0.70
     Davidson diagonalization with overlap
     ethr =  1.73E-08,  avg # of iterations =  7.5

     total cpu time spent up to now is       21.3 secs

     total energy              =    -755.96456987 Ry
     estimated scf accuracy    <       0.00003048 Ry

     iteration # 18     ecut=    75.00 Ry     beta= 0.70
     Davidson diagonalization with overlap
     ethr =  1.73E-08,  avg # of iterations =  7.2

     total cpu time spent up to now is       22.1 secs

     total energy              =    -755.96456814 Ry
     estimated scf accuracy    <       0.00039034 Ry

     iteration # 19     ecut=    75.00 Ry     beta= 0.70
     Davidson diagonalization with overlap
     ethr =  1.73E-08,  avg # of iterations =  2.0

     total cpu time spent up to now is       22.5 secs

     total energy              =    -755.96457926 Ry
     estimated scf accuracy    <       0.00028853 Ry

     iteration # 20     ecut=    75.00 Ry     beta= 0.70
     Davidson diagonalization with overlap
     ethr =  1.73E-08,  avg # of iterations =  1.4

     total cpu time spent up to now is       23.0 secs

     total energy              =    -755.96448964 Ry
     estimated scf accuracy    <       0.00031432 Ry

     iteration # 21     ecut=    75.00 Ry     beta= 0.70
     Davidson diagonalization with overlap
     ethr =  1.73E-08,  avg # of iterations =  9.2

     total cpu time spent up to now is       23.9 secs

     total energy              =    -755.96452171 Ry
     estimated scf accuracy    <       0.00000419 Ry

     iteration # 22     ecut=    75.00 Ry     beta= 0.70
     Davidson diagonalization with overlap
     ethr =  8.05E-09,  avg # of iterations =  1.3

     total cpu time spent up to now is       24.3 secs

     total energy              =    -755.96451984 Ry
     estimated scf accuracy    <       0.00000748 Ry

     iteration # 23     ecut=    75.00 Ry     beta= 0.70
     Davidson diagonalization with overlap
     ethr =  8.05E-09,  avg # of iterations =  2.8

     total cpu time spent up to now is       24.7 secs

     total energy              =    -755.96451974 Ry
     estimated scf accuracy    <       0.00000147 Ry

     iteration # 24     ecut=    75.00 Ry     beta= 0.70
     Davidson diagonalization with overlap
     ethr =  2.83E-09,  avg # of iterations =  5.2

     total cpu time spent up to now is       25.3 secs

     total energy              =    -755.96452047 Ry
     estimated scf accuracy    <       0.00000023 Ry

     iteration # 25     ecut=    75.00 Ry     beta= 0.70
     Davidson diagonalization with overlap
     ethr =  4.45E-10,  avg # of iterations =  2.6

     total cpu time spent up to now is       25.8 secs

     total energy              =    -755.96452050 Ry
     estimated scf accuracy    <       0.00000002 Ry

     iteration # 26     ecut=    75.00 Ry     beta= 0.70
     Davidson diagonalization with overlap
     ethr =  4.33E-11,  avg # of iterations =  6.4

     total cpu time spent up to now is       26.5 secs

     End of self-consistent calculation

          k = 0.0000 0.0000 0.0000 ( 11443 PWs)   bands (ev):

   -50.0649 -50.0647 -21.9872 -21.9859 -21.9854 -21.9852 -21.9848 -21.9776
   -12.2755 -12.2749 -12.2731 -12.2686 -12.2601 -12.2576 -12.1371 -12.1346
   -12.1223 -12.1205  -6.5126  -5.5408  -2.0343  -0.8312  -0.7289  -0.6523
    -0.2739  -0.2234   4.6713   5.0326   5.7309   6.2354   6.4047

          k = 0.0000 0.0000 0.1645 ( 11427 PWs)   bands (ev):

   -50.0649 -50.0647 -21.9872 -21.9867 -21.9851 -21.9849 -21.9842 -21.9780
   -12.2754 -12.2748 -12.2732 -12.2694 -12.2595 -12.2574 -12.1369 -12.1348
   -12.1222 -12.1206  -6.4619  -5.6282  -1.9101  -0.8111  -0.7244  -0.6286
    -0.3614  -0.3011   4.8052   5.0834   5.4791   6.1035   6.6687

          k = 0.0000 0.0000 0.3290 ( 11427 PWs)   bands (ev):

   -50.0648 -50.0647 -21.9874 -21.9873 -21.9851 -21.9849 -21.9824 -21.9790
   -12.2749 -12.2743 -12.2737 -12.2712 -12.2584 -12.2573 -12.1365 -12.1352
   -12.1218 -12.1209  -6.3159  -5.8430  -1.5858  -0.7661  -0.7372  -0.6937
    -0.5627  -0.3738   5.0572   5.2367   5.2487   5.8043   6.6569

          k = 0.0000 0.0000-0.4934 ( 11420 PWs)   bands (ev):

   -50.0648 -50.0648 -21.9875 -21.9875 -21.9850 -21.9850 -21.9806 -21.9806
   -12.2743 -12.2743 -12.2730 -12.2730 -12.2576 -12.2576 -12.1358 -12.1358
   -12.1214 -12.1214  -6.0958  -6.0958  -1.1567  -1.1567  -0.7280  -0.7280
    -0.4700  -0.4700   5.1718   5.1718   5.4873   5.4873   6.9647

          k = 0.1664 0.1842 0.0000 ( 11432 PWs)   bands (ev):

   -50.0649 -50.0647 -21.9875 -21.9863 -21.9854 -21.9853 -21.9850 -21.9776
   -12.2747 -12.2736 -12.2713 -12.2692 -12.2596 -12.2570 -12.1371 -12.1344
   -12.1228 -12.1203  -6.3934  -5.4903  -1.9258  -1.4313  -0.7718  -0.6124
    -0.3696  -0.3437   4.6805   5.5569   5.8094   6.3913   6.6195

          k = 0.1664 0.1842 0.1645 ( 11429 PWs)   bands (ev):

   -50.0649 -50.0647 -21.9876 -21.9870 -21.9854 -21.9851 -21.9841 -21.9780
   -12.2747 -12.2735 -12.2715 -12.2700 -12.2590 -12.2568 -12.1369 -12.1346
   -12.1226 -12.1205  -6.3448  -5.5681  -1.8614  -1.3660  -0.8210  -0.6118
    -0.4001  -0.3798   4.8059   5.6359   5.6653   6.3991   6.5046

          k = 0.1664 0.1842 0.3290 ( 11449 PWs)   bands (ev):

   -50.0648 -50.0647 -21.9877 -21.9876 -21.9854 -21.9851 -21.9824 -21.9790
   -12.2743 -12.2730 -12.2720 -12.2716 -12.2579 -12.2567 -12.1364 -12.1351
   -12.1222 -12.1209  -6.2056  -5.7631  -1.6879  -1.2879  -0.9000  -0.5749
    -0.5360  -0.4236   5.0856   5.4812   5.8585   6.2241   6.3951

          k = 0.1664 0.1842-0.4934 ( 11436 PWs)   bands (ev):

   -50.0648 -50.0648 -21.9878 -21.9878 -21.9852 -21.9852 -21.9806 -21.9806
   -12.2733 -12.2733 -12.2724 -12.2724 -12.2570 -12.2570 -12.1357 -12.1357
   -12.1215 -12.1215  -5.9978  -5.9978  -1.4540  -1.4540  -0.7540  -0.7540
    -0.4895  -0.4895   5.3313   5.3313   6.0299   6.0299   6.6600

          k = 0.3329 0.3685 0.0000 ( 11432 PWs)   bands (ev):

   -50.0649 -50.0647 -21.9883 -21.9876 -21.9854 -21.9852 -21.9851 -21.9777
   -12.2739 -12.2707 -12.2702 -12.2685 -12.2579 -12.2555 -12.1369 -12.1341
   -12.1236 -12.1201  -6.0842  -5.4250  -2.1878  -1.6251  -1.2797  -0.6734
    -0.6338  -0.3322   4.9712   5.6240   6.4069   6.4540   7.1081

          k = 0.3329 0.3685 0.1645 ( 11430 PWs)   bands (ev):

   -50.0649 -50.0647 -21.9884 -21.9880 -21.9857 -21.9853 -21.9840 -21.9781
   -12.2741 -12.2714 -12.2700 -12.2685 -12.2574 -12.2553 -12.1367 -12.1343
   -12.1234 -12.1204  -6.0437  -5.4720  -2.2350  -1.6669  -1.2242  -0.6539
    -0.5779  -0.3396   5.0217   5.7017   6.2297   6.3606   7.1648

          k = 0.3329 0.3685 0.3290 ( 11443 PWs)   bands (ev):

   -50.0648 -50.0647 -21.9886 -21.9885 -21.9856 -21.9854 -21.9823 -21.9790
   -12.2743 -12.2728 -12.2697 -12.2688 -12.2562 -12.2550 -12.1362 -12.1348
   -12.1227 -12.1210  -5.9303  -5.5993  -2.2436  -1.8924  -0.9791  -0.6478
    -0.5024  -0.3627   5.1864   5.8072   6.0205   6.1365   7.2150

          k = 0.3329 0.3685-0.4934 ( 11432 PWs)   bands (ev):

   -50.0648 -50.0648 -21.9887 -21.9887 -21.9855 -21.9855 -21.9805 -21.9805
   -12.2739 -12.2739 -12.2692 -12.2692 -12.2553 -12.2553 -12.1355 -12.1355
   -12.1219 -12.1219  -5.7685  -5.7685  -2.1210  -2.1210  -0.7516  -0.7516
    -0.4238  -0.4238   5.4838   5.4838   6.0784   6.0784   7.3406

          k =-0.4993-0.5527 0.0000 ( 11426 PWs)   bands (ev):

   -50.0649 -50.0647 -21.9888 -21.9883 -21.9854 -21.9853 -21.9850 -21.9778
   -12.2729 -12.2722 -12.2687 -12.2675 -12.2567 -12.2545 -12.1369 -12.1339
   -12.1240 -12.1201  -5.8370  -5.4673  -2.4884  -1.5990  -1.3059  -1.0098
    -0.6109  -0.3097   5.2336   5.8327   6.0395   6.4803   7.1295

          k =-0.4993-0.5527 0.1645 ( 11448 PWs)   bands (ev):

   -50.0649 -50.0647 -21.9889 -21.9886 -21.9857 -21.9854 -21.9840 -21.9781
   -12.2733 -12.2727 -12.2685 -12.2675 -12.2562 -12.2543 -12.1367 -12.1341
   -12.1237 -12.1204  -5.8080  -5.4847  -2.5252  -1.8812  -1.0548  -0.9300
    -0.5746  -0.3181   5.2804   5.7993   5.8338   6.4684   7.4374

          k =-0.4993-0.5527 0.3290 ( 11426 PWs)   bands (ev):

   -50.0648 -50.0647 -21.9891 -21.9891 -21.9857 -21.9855 -21.9822 -21.9790
   -12.2739 -12.2736 -12.2682 -12.2676 -12.2551 -12.2540 -12.1361 -12.1347
   -12.1230 -12.1211  -5.7301  -5.5398  -2.5520  -2.2227  -0.8149  -0.7984
    -0.4746  -0.3390   5.3728   5.5297   5.8780   6.2959   7.6518

          k =-0.4993-0.5527-0.4934 ( 11416 PWs)   bands (ev):

   -50.0648 -50.0648 -21.9892 -21.9892 -21.9856 -21.9856 -21.9805 -21.9805
   -12.2742 -12.2742 -12.2678 -12.2678 -12.2542 -12.2542 -12.1354 -12.1354
   -12.1220 -12.1220  -5.6294  -5.6294  -2.4598  -2.4598  -0.7398  -0.7398
    -0.3799  -0.3799   5.4251   5.4251   6.0449   6.0449   7.8365

          k = 0.3329 0.0000 0.0000 ( 11448 PWs)   bands (ev):

   -50.0649 -50.0647 -21.9877 -21.9863 -21.9858 -21.9853 -21.9853 -21.9776
   -12.2752 -12.2717 -12.2694 -12.2690 -12.2596 -12.2559 -12.1375 -12.1348
   -12.1232 -12.1203  -6.3072  -5.4189  -1.8811  -1.4744  -1.1089  -0.6187
    -0.6034  -0.3202   4.7657   5.7261   5.8363   6.3981   6.5986

          k = 0.3329 0.0000 0.1645 ( 11431 PWs)   bands (ev):

   -50.0649 -50.0647 -21.9877 -21.9870 -21.9858 -21.9854 -21.9841 -21.9780
   -12.2751 -12.2716 -12.2698 -12.2695 -12.2590 -12.2559 -12.1373 -12.1350
   -12.1230 -12.1205  -6.2593  -5.4953  -1.7935  -1.4427  -1.0987  -0.6596
    -0.6283  -0.3851   4.9181   5.6676   5.8603   6.4474   6.8846

          k = 0.3329 0.0000 0.3290 ( 11435 PWs)   bands (ev):

   -50.0648 -50.0647 -21.9878 -21.9877 -21.9857 -21.9855 -21.9823 -21.9790
   -12.2745 -12.2715 -12.2711 -12.2700 -12.2578 -12.2561 -12.1368 -12.1355
   -12.1224 -12.1210  -6.1222  -5.6869  -1.5638  -1.3598  -1.1111  -0.8732
    -0.6185  -0.4809   5.2756   5.6387   5.9702   6.4205   7.0291

          k = 0.3329 0.0000-0.4934 ( 11414 PWs)   bands (ev):

   -50.0648 -50.0648 -21.9879 -21.9879 -21.9856 -21.9856 -21.9806 -21.9806
   -12.2732 -12.2732 -12.2706 -12.2706 -12.2567 -12.2567 -12.1361 -12.1361
   -12.1217 -12.1217  -5.9176  -5.9176  -1.3148  -1.3148  -1.1299  -1.1299
    -0.5580  -0.5580   5.5893   5.5893   6.1580   6.1580   6.9270

          k = 0.4993 0.1842 0.0000 ( 11443 PWs)   bands (ev):

   -50.0649 -50.0647 -21.9883 -21.9874 -21.9860 -21.9857 -21.9851 -21.9777
   -12.2751 -12.2699 -12.2681 -12.2662 -12.2585 -12.2545 -12.1377 -12.1348
   -12.1241 -12.1201  -6.0309  -5.3213  -2.1062  -1.6528  -1.3178  -0.9218
    -0.6976  -0.5252   5.0068   5.6496   5.9252   6.4319   7.0516

          k = 0.4993 0.1842 0.1645 ( 11449 PWs)   bands (ev):

   -50.0649 -50.0647 -21.9884 -21.9878 -21.9862 -21.9857 -21.9840 -21.9781
   -12.2751 -12.2706 -12.2679 -12.2663 -12.2579 -12.2545 -12.1375 -12.1349
   -12.1238 -12.1203  -5.9891  -5.3752  -2.1255  -1.6228  -1.3184  -0.8959
    -0.7079  -0.5482   5.1022   5.7010   6.0046   6.6016   6.7848

          k = 0.4993 0.1842 0.3290 ( 11440 PWs)   bands (ev):

   -50.0648 -50.0647 -21.9885 -21.9883 -21.9861 -21.9858 -21.9823 -21.9790
   -12.2746 -12.2721 -12.2676 -12.2666 -12.2567 -12.2547 -12.1369 -12.1355
   -12.1231 -12.1210  -5.8711  -5.5175  -2.0934  -1.7535  -1.1553  -0.8451
    -0.7431  -0.6230   5.3576   5.9365   6.0865   6.5552   6.9239

          k = 0.4993 0.1842-0.4934 ( 11436 PWs)   bands (ev):

   -50.0648 -50.0648 -21.9886 -21.9886 -21.9860 -21.9860 -21.9805 -21.9805
   -12.2736 -12.2736 -12.2671 -12.2671 -12.2555 -12.2555 -12.1362 -12.1362
   -12.1220 -12.1220  -5.7005  -5.7005  -1.9553  -1.9553  -0.9398  -0.9398
    -0.7102  -0.7102   5.7318   5.7318   6.3918   6.3918   7.0128

          k =-0.3329-0.7369 0.0000 ( 11454 PWs)   bands (ev):

   -50.0649 -50.0647 -21.9888 -21.9881 -21.9860 -21.9857 -21.9850 -21.9778
   -12.2742 -12.2712 -12.2663 -12.2652 -12.2574 -12.2538 -12.1374 -12.1343
   -12.1245 -12.1199  -5.7626  -5.3739  -2.4159  -1.6019  -1.3292  -0.9837
    -0.8948  -0.6762   5.2815   5.8938   5.9590   6.3465   6.9773

          k =-0.3329-0.7369 0.1645 ( 11440 PWs)   bands (ev):

   -50.0649 -50.0647 -21.9889 -21.9885 -21.9862 -21.9858 -21.9840 -21.9781
   -12.2743 -12.2718 -12.2662 -12.2652 -12.2569 -12.2538 -12.1372 -12.1345
   -12.1242 -12.1202  -5.7332  -5.3938  -2.4430  -1.8297  -1.1297  -1.0072
    -0.7954  -0.6817   5.3035   5.7942   5.9707   6.5218   7.0533

          k =-0.3329-0.7369 0.3290 ( 11431 PWs)   bands (ev):

   -50.0648 -50.0647 -21.9891 -21.9889 -21.9862 -21.9859 -21.9822 -21.9790
   -12.2745 -12.2730 -12.2659 -12.2653 -12.2557 -12.2539 -12.1366 -12.1351
   -12.1234 -12.1211  -5.6538  -5.4546  -2.4543  -2.1326  -0.9770  -0.9119
    -0.7412  -0.6403   5.3876   5.7459   6.1149   6.5977   7.1094

          k =-0.3329-0.7369-0.4934 ( 11426 PWs)   bands (ev):

   -50.0648 -50.0648 -21.9891 -21.9891 -21.9861 -21.9861 -21.9805 -21.9805
   -12.2741 -12.2741 -12.2656 -12.2656 -12.2545 -12.2545 -12.1358 -12.1358
   -12.1222 -12.1222  -5.5498  -5.5498  -2.3567  -2.3567  -0.9089  -0.9089
    -0.6560  -0.6560   5.5913   5.5913   6.3967   6.3967   7.1723

          k =-0.1664-0.5527 0.0000 ( 11420 PWs)   bands (ev):

   -50.0649 -50.0647 -21.9884 -21.9876 -21.9861 -21.9856 -21.9850 -21.9778
   -12.2729 -12.2721 -12.2678 -12.2662 -12.2584 -12.2552 -12.1369 -12.1340
   -12.1242 -12.1199  -5.9337  -5.4006  -2.1448  -1.4374  -1.3056  -1.1158
    -0.8466  -0.6167   5.2572   5.9202   6.5877   6.6230   7.0937

          k =-0.1664-0.5527 0.1645 ( 11428 PWs)   bands (ev):

   -50.0649 -50.0647 -21.9885 -21.9880 -21.9862 -21.9857 -21.9840 -21.9781
   -12.2733 -12.2726 -12.2677 -12.2662 -12.2578 -12.2551 -12.1367 -12.1342
   -12.1240 -12.1202  -5.8981  -5.4343  -2.1907  -1.6235  -1.2379  -1.0099
    -0.7811  -0.5944   5.3416   5.8894   6.2326   7.0804   7.1074

          k =-0.1664-0.5527 0.3290 ( 11422 PWs)   bands (ev):

   -50.0648 -50.0647 -21.9887 -21.9886 -21.9861 -21.9858 -21.9823 -21.9790
   -12.2739 -12.2736 -12.2674 -12.2665 -12.2564 -12.2549 -12.1362 -12.1347
   -12.1231 -12.1210  -5.7999  -5.5297  -2.2196  -1.9047  -1.1422  -0.9273
    -0.6671  -0.5147   5.5400   5.8032   6.1373   6.7311   7.1894

          k =-0.1664-0.5527-0.4934 ( 11436 PWs)   bands (ev):

   -50.0648 -50.0648 -21.9888 -21.9888 -21.9860 -21.9860 -21.9805 -21.9805
   -12.2742 -12.2742 -12.2669 -12.2669 -12.2553 -12.2553 -12.1354 -12.1354
   -12.1220 -12.1220  -5.6643  -5.6643  -2.1246  -2.1246  -1.0228  -1.0228
    -0.5241  -0.5241   5.7217   5.7217   6.2689   6.2689   7.4113

          k = 0.0000-0.3685 0.0000 ( 11429 PWs)   bands (ev):

   -50.0649 -50.0647 -21.9878 -21.9866 -21.9859 -21.9853 -21.9852 -21.9777
   -12.2738 -12.2715 -12.2705 -12.2693 -12.2593 -12.2568 -12.1368 -12.1340
   -12.1234 -12.1200  -6.2486  -5.4570  -1.7653  -1.5827  -1.1167  -0.6597
    -0.5995  -0.5410   4.9807   5.9386   6.0080   6.9535   7.1643

          k = 0.0000-0.3685 0.1645 ( 11427 PWs)   bands (ev):

   -50.0649 -50.0647 -21.9879 -21.9873 -21.9858 -21.9853 -21.9841 -21.9780
   -12.2740 -12.2714 -12.2712 -12.2695 -12.2587 -12.2566 -12.1366 -12.1342
   -12.1232 -12.1203  -6.2035  -5.5201  -1.8356  -1.4529  -1.0856  -0.7941
    -0.6384  -0.4309   5.1307   5.9500   5.9781   6.6988   6.9035

          k = 0.0000-0.3685 0.3290 ( 11413 PWs)   bands (ev):

   -50.0648 -50.0647 -21.9881 -21.9879 -21.9857 -21.9854 -21.9823 -21.9790
   -12.2742 -12.2726 -12.2710 -12.2699 -12.2574 -12.2563 -12.1361 -12.1347
   -12.1226 -12.1209  -6.0757  -5.6835  -1.8184  -1.4738  -0.9985  -0.7440
    -0.7411  -0.4051   5.5306   5.8952   6.0994   6.3030   6.5769

          k = 0.0000-0.3685-0.4934 ( 11434 PWs)   bands (ev):

   -50.0648 -50.0648 -21.9881 -21.9881 -21.9856 -21.9856 -21.9805 -21.9805
   -12.2738 -12.2738 -12.2704 -12.2704 -12.2565 -12.2565 -12.1354 -12.1354
   -12.1217 -12.1217  -5.8884  -5.8884  -1.6711  -1.6711  -0.8737  -0.8737
    -0.5311  -0.5311   5.9261   5.9261   6.2086   6.2089   6.3027

          k = 0.6658 0.0000 0.0000 ( 11464 PWs)   bands (ev):

   -50.0649 -50.0647 -21.9886 -21.9872 -21.9871 -21.9863 -21.9849 -21.9778
   -12.2758 -12.2699 -12.2639 -12.2619 -12.2590 -12.2533 -12.1384 -12.1352
   -12.1250 -12.1198  -5.8109  -5.1627  -2.1123  -1.5433  -1.5348  -1.4169
    -1.1596  -0.5021   4.7596   5.1462   5.7740   6.7265   6.8724

          k = 0.6658 0.0000 0.1645 ( 11462 PWs)   bands (ev):

   -50.0648 -50.0647 -21.9887 -21.9878 -21.9871 -21.9863 -21.9840 -21.9781
   -12.2756 -12.2706 -12.2638 -12.2620 -12.2584 -12.2535 -12.1382 -12.1354
   -12.1247 -12.1202  -5.7721  -5.2111  -2.0716  -1.5909  -1.5176  -1.4178
    -1.1300  -0.5822   4.9713   5.2020   5.9569   6.8209   6.8746

          k = 0.6658 0.0000 0.3290 ( 11441 PWs)   bands (ev):

   -50.0648 -50.0647 -21.9887 -21.9884 -21.9870 -21.9865 -21.9822 -21.9790
   -12.2750 -12.2721 -12.2634 -12.2624 -12.2569 -12.2542 -12.1376 -12.1360
   -12.1237 -12.1211  -5.6629  -5.3396  -1.9571  -1.6287  -1.5666  -1.4365
    -1.0402  -0.7586   5.4642   5.5207   6.3899   6.7382   6.7977

          k = 0.6658 0.0000-0.4934 ( 11446 PWs)   bands (ev):

   -50.0648 -50.0648 -21.9887 -21.9887 -21.9867 -21.9867 -21.9805 -21.9805
   -12.2737 -12.2737 -12.2629 -12.2629 -12.2554 -12.2554 -12.1368 -12.1368
   -12.1224 -12.1224  -5.5062  -5.5062  -1.7931  -1.7931  -1.4983  -1.4983
    -0.9210  -0.9210   5.9431   5.9431   6.3453   6.3453   6.8860

          k =-0.1664-0.9211 0.0000 ( 11444 PWs)   bands (ev):

   -50.0649 -50.0647 -21.9889 -21.9879 -21.9872 -21.9864 -21.9848 -21.9778
   -12.2756 -12.2706 -12.2618 -12.2606 -12.2584 -12.2528 -12.1384 -12.1351
   -12.1255 -12.1197  -5.5916  -5.1577  -2.2689  -1.7814  -1.5535  -1.3390
    -1.2342  -0.6892   4.6524   5.2306   5.5668   6.2667   7.3078

          k =-0.1664-0.9211 0.1645 ( 11447 PWs)   bands (ev):

   -50.0648 -50.0647 -21.9889 -21.9882 -21.9873 -21.9865 -21.9839 -21.9781
   -12.2755 -12.2712 -12.2617 -12.2606 -12.2579 -12.2530 -12.1382 -12.1353
   -12.1251 -12.1201  -5.5615  -5.1839  -2.2622  -1.8053  -1.5949  -1.3186
    -1.2207  -0.7119   4.7997   5.2440   5.8810   6.4333   7.2361

          k =-0.1664-0.9211 0.3290 ( 11429 PWs)   bands (ev):

   -50.0648 -50.0647 -21.9891 -21.9888 -21.9872 -21.9867 -21.9822 -21.9791
   -12.2750 -12.2726 -12.2614 -12.2607 -12.2566 -12.2537 -12.1375 -12.1359
   -12.1240 -12.1211  -5.4791  -5.2591  -2.2176  -1.9303  -1.5876  -1.3812
    -1.0981  -0.7941   5.1964   5.5702   6.3569   6.6401   7.0990

          k =-0.1664-0.9211-0.4934 ( 11424 PWs)   bands (ev):

   -50.0648 -50.0648 -21.9891 -21.9891 -21.9869 -21.9869 -21.9805 -21.9805
   -12.2740 -12.2740 -12.2610 -12.2610 -12.2550 -12.2550 -12.1367 -12.1367
   -12.1226 -12.1226  -5.3674  -5.3674  -2.1009  -2.1009  -1.4923  -1.4923
    -0.9351  -0.9351   5.7777   5.7777   6.2666   6.2666   7.3404

          k = 0.0000-0.7369 0.0000 ( 11416 PWs)   bands (ev):

   -50.0649 -50.0647 -21.9887 -21.9875 -21.9872 -21.9862 -21.9849 -21.9778
   -12.2743 -12.2714 -12.2635 -12.2618 -12.2591 -12.2539 -12.1377 -12.1345
   -12.1251 -12.1197  -5.6636  -5.2959  -2.0714  -1.7968  -1.3422  -1.2158
    -1.1461  -0.9382   4.8720   5.8704   5.9917   6.3735   7.3860

          k = 0.0000-0.7369 0.1645 ( 11440 PWs)   bands (ev):

   -50.0648 -50.0647 -21.9888 -21.9881 -21.9871 -21.9863 -21.9839 -21.9781
   -12.2745 -12.2720 -12.2634 -12.2619 -12.2584 -12.2540 -12.1374 -12.1347
   -12.1248 -12.1201  -5.6357  -5.3150  -2.1095  -1.7592  -1.5981  -1.1972
    -1.0000  -0.8550   4.9734   5.6977   6.4294   6.5166   7.1267

          k = 0.0000-0.7369 0.3290 ( 11433 PWs)   bands (ev):

   -50.0648 -50.0647 -21.9889 -21.9887 -21.9869 -21.9864 -21.9822 -21.9790
   -12.2746 -12.2732 -12.2631 -12.2623 -12.2568 -12.2543 -12.1368 -12.1352
   -12.1238 -12.1210  -5.5607  -5.3728  -2.1435  -1.8790  -1.6529  -1.3302
    -0.8064  -0.7244   5.2277   5.9200   6.3910   6.8827   6.8867

          k = 0.0000-0.7369-0.4934 ( 11418 PWs)   bands (ev):

   -50.0648 -50.0648 -21.9890 -21.9890 -21.9867 -21.9867 -21.9805 -21.9805
   -12.2742 -12.2742 -12.2627 -12.2627 -12.2553 -12.2553 -12.1360 -12.1360
   -12.1224 -12.1224  -5.4626  -5.4626  -2.0734  -2.0734  -1.4981  -1.4981
    -0.7013  -0.7013   5.6821   5.6821   6.5226   6.5226   7.3082

          k =-0.9987 0.0000 0.0000 ( 11478 PWs)   bands (ev):

   -50.0649 -50.0647 -21.9890 -21.9878 -21.9877 -21.9867 -21.9847 -21.9778
   -12.2761 -12.2704 -12.2596 -12.2593 -12.2580 -12.2523 -12.1389 -12.1355
   -12.1259 -12.1196  -5.4913  -5.0284  -2.2093  -2.0701  -1.7191  -1.3784
    -1.3352  -0.5878   4.4563   4.9274   5.1368   5.9624   8.5119

          k =-0.9987 0.0000 0.1645 ( 11466 PWs)   bands (ev):

   -50.0648 -50.0647 -21.9891 -21.9882 -21.9877 -21.9868 -21.9839 -21.9781
   -12.2759 -12.2710 -12.2595 -12.2586 -12.2581 -12.2526 -12.1387 -12.1357
   -12.1255 -12.1200  -5.4608  -5.0591  -2.1742  -2.0305  -1.7511  -1.4335
    -1.3165  -0.6798   4.6760   4.9678   5.4440   6.1370   8.2207

          k =-0.9987 0.0000 0.3290 ( 11428 PWs)   bands (ev):

   -50.0648 -50.0647 -21.9892 -21.9888 -21.9875 -21.9870 -21.9822 -21.9791
   -12.2752 -12.2724 -12.2592 -12.2584 -12.2570 -12.2535 -12.1380 -12.1363
   -12.1243 -12.1212  -5.3767  -5.1438  -2.0787  -1.9185  -1.8337  -1.5760
    -1.2514  -0.8923   5.2341   5.2896   6.0822   6.6240   7.5018

          k =-0.9987 0.0000-0.4934 ( 11408 PWs)   bands (ev):

   -50.0648 -50.0648 -21.9891 -21.9891 -21.9873 -21.9873 -21.9805 -21.9805
   -12.2740 -12.2740 -12.2588 -12.2588 -12.2551 -12.2551 -12.1371 -12.1371
   -12.1228 -12.1228  -5.2605  -5.2605  -1.9519  -1.9519  -1.7548  -1.7548
    -1.1084  -1.1084   5.6640   5.6640   6.6938   6.6938   7.1173

     the Fermi energy is     1.7000 ev

!    total energy              =    -755.96452051 Ry
     estimated scf accuracy    <          8.7E-10 Ry
     smearing contrib. (-TS)   =       0.00000000 Ry
     internal energy E=F+TS    =    -755.96452051 Ry

     The total energy is F=E-TS. E is the sum of the following terms:
     one-electron contribution =    -441.26976221 Ry
     hartree contribution      =     246.84115975 Ry
     xc contribution           =    -110.73739476 Ry
     ewald contribution        =    -228.11602377 Ry
     one-center paw contrib.   =    -222.68249951 Ry

     convergence has been achieved in  26 iterations

     Forces acting on atoms (cartesian axes, Ry/au):

     atom    1 type  2   force =     0.00000000    0.00009307    0.00000000
     atom    2 type  2   force =    -0.00000000   -0.00009307    0.00000000
     atom    3 type  3   force =    -0.00000000    0.00046856    0.00000000
     atom    4 type  3   force =     0.00000000   -0.00046856    0.00000000
     atom    5 type  1   force =     0.00000000   -0.00072297    0.00072715
     atom    6 type  1   force =    -0.00000000   -0.00072297   -0.00072715
     atom    7 type  1   force =     0.00000000    0.00072297    0.00072715
     atom    8 type  1   force =     0.00000000    0.00072297   -0.00072715
     atom    9 type  1   force =    -0.00062743    0.00073814    0.00000000
     atom   10 type  1   force =    -0.00062743   -0.00073814    0.00000000
     atom   11 type  1   force =     0.00062743   -0.00073814    0.00000000
     atom   12 type  1   force =     0.00062743    0.00073814    0.00000000

     Total force =     0.002901     Total SCF correction =     0.000009


     Computing stress (Cartesian axis) and pressure

          total   stress  (Ry/bohr**3)                   (kbar)     P=        7.21
   0.00004274   0.00000000   0.00000000            6.29        0.00        0.00
   0.00000000   0.00005588   0.00000000            0.00        8.22        0.00
   0.00000000   0.00000000   0.00004837            0.00        0.00        7.12

     Energy error            =      2.7E-04 Ry
     Gradient error          =      7.4E-04 Ry/Bohr
     Cell gradient error     =      8.2E+00 kbar

     number of scf cycles    =   2
     number of bfgs steps    =   1

     enthalpy           old  =    -755.9642516300 Ry
     enthalpy           new  =    -755.9645205108 Ry

     CASE: enthalpy          _new < enthalpy          _old


     WARNING: bfgs curvature condition failed, Theta= 0.999
     new trust radius        =       0.0124731523 bohr
     new conv_thr            =            1.0E-10 Ry

     new unit-cell volume =   1052.66991 a.u.^3 (   155.98959 Ang^3 )
     density =      2.05967 g/cm^3

CELL_PARAMETERS (alat= 13.16555183)
   0.501411466  -0.453205548   0.000000000
   0.501411466   0.453205548   0.000000000
   0.000000000   0.000000000   1.014975439

ATOMIC_POSITIONS (crystal)
Ga            0.8418595072        0.1581404928        0.7500000000
Ga            0.1581404928        0.8418595072        0.2500000000
Na            0.6578291274        0.3421708726        0.2500000000
Na            0.3421708726        0.6578291274        0.7500000000
H             0.6892536484        0.3107463516        0.5697148071
H             0.6892536484        0.3107463516        0.9302851929
H             0.3107463516        0.6892536484        0.0697148071
H             0.3107463516        0.6892536484        0.4302851929
H             0.1765342489        0.1930957457        0.7500000000
H             0.1930957457        0.1765342489        0.2500000000
H             0.8234657511        0.8069042543        0.2500000000
H             0.8069042543        0.8234657511        0.7500000000



     Writing config-only to output data dir ./nagah4.save/
     NEW-OLD atomic charge density approx. for the potential
     extrapolated charge   52.26261, renormalised to   52.00000

     total cpu time spent up to now is       27.1 secs

     Self-consistent Calculation

     iteration #  1     ecut=    75.00 Ry     beta= 0.70
     Davidson diagonalization with overlap
     ethr =  1.00E-06,  avg # of iterations = 15.7

     total cpu time spent up to now is       28.7 secs

     total energy              =    -755.94376803 Ry
     estimated scf accuracy    <       0.02069074 Ry

     iteration #  2     ecut=    75.00 Ry     beta= 0.70
     Davidson diagonalization with overlap
     ethr =  3.98E-05,  avg # of iterations =  8.4

     total cpu time spent up to now is       29.6 secs

     total energy              =    -755.96508313 Ry
     estimated scf accuracy    <       0.04164307 Ry

     iteration #  3     ecut=    75.00 Ry     beta= 0.70
     Davidson diagonalization with overlap
     ethr =  3.98E-05,  avg # of iterations =  2.0

     total cpu time spent up to now is       30.0 secs

     total energy              =    -755.96533070 Ry
     estimated scf accuracy    <       0.01335916 Ry

     iteration #  4     ecut=    75.00 Ry     beta= 0.70
     Davidson diagonalization with overlap
     ethr =  2.57E-05,  avg # of iterations =  1.4

     total cpu time spent up to now is       30.3 secs

     total energy              =    -755.96496438 Ry
     estimated scf accuracy    <       0.00868749 Ry

     iteration #  5     ecut=    75.00 Ry     beta= 0.70
     Davidson diagonalization with overlap
     ethr =  1.67E-05,  avg # of iterations =  1.1

     total cpu time spent up to now is       30.7 secs

     total energy              =    -755.96294196 Ry
     estimated scf accuracy    <       0.00650581 Ry

     iteration #  6     ecut=    75.00 Ry     beta= 0.70
     Davidson diagonalization with overlap
     ethr =  1.25E-05,  avg # of iterations =  5.4

     total cpu time spent up to now is       31.4 secs

     total energy              =    -755.96426679 Ry
     estimated scf accuracy    <       0.00021175 Ry

     iteration #  7     ecut=    75.00 Ry     beta= 0.70
     Davidson diagonalization with overlap
     ethr =  4.07E-07,  avg # of iterations =  7.2

     total cpu time spent up to now is       32.2 secs

     total energy              =    -755.96481638 Ry
     estimated scf accuracy    <       0.00022749 Ry

     iteration #  8     ecut=    75.00 Ry     beta= 0.70
     Davidson diagonalization with overlap
     ethr =  4.07E-07,  avg # of iterations =  5.1

     total cpu time spent up to now is       32.7 secs

     total energy              =    -755.96488199 Ry
     estimated scf accuracy    <       0.00025620 Ry

     iteration #  9     ecut=    75.00 Ry     beta= 0.70
     Davidson diagonalization with overlap
     ethr =  4.07E-07,  avg # of iterations =  1.0

     total cpu time spent up to now is       33.2 secs

     total energy              =    -755.96489614 Ry
     estimated scf accuracy    <       0.00028787 Ry

     iteration # 10     ecut=    75.00 Ry     beta= 0.70
     Davidson diagonalization with overlap
     ethr =  4.07E-07,  avg # of iterations =  1.0

     total cpu time spent up to now is       33.6 secs

     total energy              =    -755.96472313 Ry
     estimated scf accuracy    <       0.00032448 Ry

     iteration # 11     ecut=    75.00 Ry     beta= 0.70
     Davidson diagonalization with overlap
     ethr =  4.07E-07,  avg # of iterations =  8.3

     total cpu time spent up to now is       34.4 secs

     total energy              =    -755.96465525 Ry
     estimated scf accuracy    <       0.00124636 Ry

     iteration # 12     ecut=    75.00 Ry     beta= 0.70
     Davidson diagonalization with overlap
     ethr =  4.07E-07,  avg # of iterations =  5.0

     total cpu time spent up to now is       35.0 secs

     total energy              =    -755.96476027 Ry
     estimated scf accuracy    <       0.00001613 Ry

     iteration # 13     ecut=    75.00 Ry     beta= 0.70
     Davidson diagonalization with overlap
     ethr =  3.10E-08,  avg # of iterations =  5.9

     total cpu time spent up to now is       35.5 secs

     total energy              =    -755.96476841 Ry
     estimated scf accuracy    <       0.00000634 Ry

     iteration # 14     ecut=    75.00 Ry     beta= 0.70
     Davidson diagonalization with overlap
     ethr =  1.22E-08,  avg # of iterations =  1.9

     total cpu time spent up to now is       35.9 secs

     total energy              =    -755.96480449 Ry
     estimated scf accuracy    <       0.00000582 Ry

     iteration # 15     ecut=    75.00 Ry     beta= 0.70
     Davidson diagonalization with overlap
     ethr =  1.12E-08,  avg # of iterations =  8.0

     total cpu time spent up to now is       36.7 secs

     total energy              =    -755.96481761 Ry
     estimated scf accuracy    <       0.00034528 Ry

     iteration # 16     ecut=    75.00 Ry     beta= 0.70
     Davidson diagonalization with overlap
     ethr =  1.12E-08,  avg # of iterations =  2.0

     total cpu time spent up to now is       37.1 secs

     total energy              =    -755.96473888 Ry
     estimated scf accuracy    <       0.00031530 Ry

     iteration # 17     ecut=    75.00 Ry     beta= 0.70
     Davidson diagonalization with overlap
     ethr =  1.12E-08,  avg # of iterations =  9.5

     total cpu time spent up to now is       38.0 secs

     total energy              =    -755.96476779 Ry
     estimated scf accuracy    <       0.00000442 Ry

     iteration # 18     ecut=    75.00 Ry     beta= 0.70
     Davidson diagonalization with overlap
     ethr =  8.49E-09,  avg # of iterations =  2.0

     total cpu time spent up to now is       38.4 secs

     total energy              =    -755.96476937 Ry
     estimated scf accuracy    <       0.00000538 Ry

     iteration # 19     ecut=    75.00 Ry     beta= 0.70
     Davidson diagonalization with overlap
     ethr =  8.49E-09,  avg # of iterations =  1.8

     total cpu time spent up to now is       38.8 secs

     total energy              =    -755.96477000 Ry
     estimated scf accuracy    <       0.00000964 Ry

     iteration # 20     ecut=    75.00 Ry     beta= 0.70
     Davidson diagonalization with overlap
     ethr =  8.49E-09,  avg # of iterations =  1.0

     total cpu time spent up to now is       39.2 secs

     total energy              =    -755.96476902 Ry
     estimated scf accuracy    <       0.00001169 Ry

     iteration # 21     ecut=    75.00 Ry     beta= 0.70
     Davidson diagonalization with overlap
     ethr =  8.49E-09,  avg # of iterations =  1.0

     total cpu time spent up to now is       39.6 secs

     total energy              =    -755.96476607 Ry
     estimated scf accuracy    <       0.00000848 Ry

     iteration # 22     ecut=    75.00 Ry     beta= 0.70
     Davidson diagonalization with overlap
     ethr =  8.49E-09,  avg # of iterations =  4.9

     total cpu time spent up to now is       40.1 secs

     total energy              =    -755.96476710 Ry
     estimated scf accuracy    <          6.7E-09 Ry

     iteration # 23     ecut=    75.00 Ry     beta= 0.70
     Davidson diagonalization with overlap
     ethr =  1.29E-11,  avg # of iterations = 12.2

     total cpu time spent up to now is       41.2 secs

     total energy              =    -755.96476722 Ry
     estimated scf accuracy    <       0.00000023 Ry

     iteration # 24     ecut=    75.00 Ry     beta= 0.70
     Davidson diagonalization with overlap
     ethr =  1.29E-11,  avg # of iterations =  9.4

     total cpu time spent up to now is       42.3 secs

     total energy              =    -755.96476726 Ry
     estimated scf accuracy    <          2.3E-09 Ry

     iteration # 25     ecut=    75.00 Ry     beta= 0.70
     Davidson diagonalization with overlap
     ethr =  4.48E-12,  avg # of iterations =  5.5

     total cpu time spent up to now is       42.9 secs

     total energy              =    -755.96476725 Ry
     estimated scf accuracy    <       0.00000001 Ry

     iteration # 26     ecut=    75.00 Ry     beta= 0.70
     Davidson diagonalization with overlap
     ethr =  4.48E-12,  avg # of iterations =  1.4

     total cpu time spent up to now is       43.4 secs

     total energy              =    -755.96476725 Ry
     estimated scf accuracy    <          8.5E-09 Ry

     iteration # 27     ecut=    75.00 Ry     beta= 0.70
     Davidson diagonalization with overlap
     ethr =  4.48E-12,  avg # of iterations =  5.2

     total cpu time spent up to now is       44.0 secs

     total energy              =    -755.96476725 Ry
     estimated scf accuracy    <          5.0E-10 Ry

     iteration # 28     ecut=    75.00 Ry     beta= 0.70
     Davidson diagonalization with overlap
     ethr =  9.52E-13,  avg # of iterations =  5.3

     total cpu time spent up to now is       44.5 secs

     total energy              =    -755.96476725 Ry
     estimated scf accuracy    <          2.1E-10 Ry

     iteration # 29     ecut=    75.00 Ry     beta= 0.70
     Davidson diagonalization with overlap
     ethr =  4.08E-13,  avg # of iterations =  5.3

     total cpu time spent up to now is       45.0 secs

     End of self-consistent calculation

          k = 0.0000 0.0000 0.0000 ( 11443 PWs)   bands (ev):

   -50.1025 -50.1023 -22.0244 -22.0232 -22.0227 -22.0226 -22.0223 -22.0150
   -12.3030 -12.3024 -12.3006 -12.2962 -12.2879 -12.2853 -12.1658 -12.1634
   -12.1514 -12.1496  -6.5213  -5.5577  -2.0506  -0.8582  -0.7552  -0.6786
    -0.3034  -0.2531   4.6222   5.0036   5.6857   6.2004   6.3712

          k = 0.0000 0.0000 0.1642 ( 11427 PWs)   bands (ev):

   -50.1025 -50.1023 -22.0245 -22.0240 -22.0226 -22.0223 -22.0214 -22.0154
   -12.3028 -12.3023 -12.3007 -12.2970 -12.2873 -12.2852 -12.1657 -12.1635
   -12.1513 -12.1497  -6.4709  -5.6441  -1.9276  -0.8381  -0.7509  -0.6551
    -0.3903  -0.3303   4.7565   5.0542   5.4386   6.0693   6.6294

          k = 0.0000 0.0000 0.3284 ( 11427 PWs)   bands (ev):

   -50.1025 -50.1024 -22.0246 -22.0245 -22.0225 -22.0223 -22.0197 -22.0164
[...]
    -0.9366  -0.6728   4.6264   5.2435   6.0953   6.0990   6.6246

          k = 0.3271 0.3610 0.1621 ( 12111 PWs)   bands (ev):

   -50.4768 -50.4767 -22.3965 -22.3962 -22.3947 -22.3946 -22.3924 -22.3873
   -12.5426 -12.5402 -12.5380 -12.5367 -12.5277 -12.5261 -12.4064 -12.4043
   -12.3939 -12.3915  -6.2266  -5.7186  -2.4002  -1.8775  -1.4594  -0.9503
    -0.8853  -0.6783   4.6815   5.3264   5.9235   5.9837   6.7273

          k = 0.3271 0.3610 0.3242 ( 12115 PWs)   bands (ev):

   -50.4768 -50.4767 -22.3966 -22.3965 -22.3948 -22.3947 -22.3909 -22.3881
   -12.5427 -12.5414 -12.5377 -12.5369 -12.5268 -12.5259 -12.4059 -12.4047
   -12.3934 -12.3920  -6.1247  -5.8306  -2.4106  -2.0896  -1.2371  -0.9419
    -0.8197  -0.6957   4.8515   5.4562   5.6846   5.8082   6.7840

          k = 0.3271 0.3610-0.4863 ( 12104 PWs)   bands (ev):

   -50.4767 -50.4767 -22.3967 -22.3967 -22.3948 -22.3948 -22.3894 -22.3894
   -12.5423 -12.5423 -12.5373 -12.5373 -12.5261 -12.5261 -12.4053 -12.4053
   -12.3927 -12.3927  -5.9803  -5.9803  -2.3003  -2.3003  -1.0336  -1.0336
    -0.7493  -0.7493   5.1451   5.1451   5.7647   5.7647   6.8782

          k =-0.4907-0.5415 0.0000 ( 12102 PWs)   bands (ev):

   -50.4768 -50.4767 -22.3968 -22.3965 -22.3946 -22.3945 -22.3931 -22.3870
   -12.5416 -12.5408 -12.5369 -12.5359 -12.5271 -12.5254 -12.4065 -12.4041
   -12.3944 -12.3912  -6.0474  -5.7132  -2.6365  -1.7985  -1.5403  -1.2705
    -0.9152  -0.6531   4.9384   5.3674   5.6847   6.1530   6.7037

          k =-0.4907-0.5415 0.1621 ( 12082 PWs)   bands (ev):

   -50.4768 -50.4767 -22.3968 -22.3967 -22.3947 -22.3946 -22.3923 -22.3873
   -12.5419 -12.5413 -12.5368 -12.5359 -12.5267 -12.5253 -12.4063 -12.4042
   -12.3942 -12.3914  -6.0214  -5.7297  -2.6686  -2.0647  -1.3053  -1.1985
    -0.8826  -0.6602   4.9751   5.4037   5.4532   6.1493   7.0299

          k =-0.4907-0.5415 0.3242 ( 12098 PWs)   bands (ev):

   -50.4768 -50.4767 -22.3970 -22.3970 -22.3948 -22.3947 -22.3909 -22.3881
   -12.5424 -12.5420 -12.5365 -12.5360 -12.5259 -12.5251 -12.4059 -12.4047
   -12.3936 -12.3920  -5.9519  -5.7808  -2.6904  -2.3828  -1.0874  -1.0789
    -0.7932  -0.6766   5.0390   5.1928   5.5345   5.9987   7.1395

          k =-0.4907-0.5415-0.4863 ( 12080 PWs)   bands (ev):

   -50.4767 -50.4767 -22.3971 -22.3971 -22.3948 -22.3948 -22.3894 -22.3894
   -12.5425 -12.5425 -12.5362 -12.5362 -12.5252 -12.5252 -12.4053 -12.4053
   -12.3928 -12.3928  -5.8618  -5.8618  -2.6034  -2.6034  -1.0232  -1.0232
    -0.7099  -0.7099   5.0838   5.0838   5.7540   5.7540   7.3304

          k = 0.3271 0.0000 0.0000 ( 12127 PWs)   bands (ev):

   -50.4768 -50.4767 -22.3959 -22.3951 -22.3948 -22.3946 -22.3932 -22.3869
   -12.5436 -12.5393 -12.5383 -12.5374 -12.5295 -12.5266 -12.4069 -12.4047
   -12.3937 -12.3914  -6.4617  -5.6680  -2.0666  -1.7039  -1.3604  -0.9287
    -0.9163  -0.6554   4.3911   5.4459   5.5758   6.0502   6.1039

          k = 0.3271 0.0000 0.1621 ( 12122 PWs)   bands (ev):

   -50.4768 -50.4767 -22.3960 -22.3953 -22.3950 -22.3947 -22.3924 -22.3872
   -12.5434 -12.5392 -12.5389 -12.5375 -12.5290 -12.5266 -12.4068 -12.4048
   -12.3936 -12.3915  -6.4179  -5.7343  -1.9929  -1.6746  -1.3494  -0.9732
    -0.9367  -0.7088   4.5444   5.3743   5.5756   6.0957   6.4244

          k = 0.3271 0.0000 0.3242 ( 12128 PWs)   bands (ev):

   -50.4768 -50.4767 -22.3960 -22.3958 -22.3950 -22.3948 -22.3909 -22.3881
   -12.5429 -12.5403 -12.5389 -12.5379 -12.5281 -12.5268 -12.4064 -12.4052
   -12.3931 -12.3920  -6.2932  -5.9025  -1.7960  -1.5989  -1.3600  -1.1722
    -0.9237  -0.7903   4.9142   5.3327   5.6685   6.0674   6.6000

          k = 0.3271 0.0000-0.4863 ( 12116 PWs)   bands (ev):

   -50.4768 -50.4768 -22.3960 -22.3960 -22.3949 -22.3949 -22.3894 -22.3894
   -12.5418 -12.5418 -12.5384 -12.5384 -12.5272 -12.5272 -12.4058 -12.4058
   -12.3925 -12.3925  -6.1084  -6.1084  -1.5715  -1.5715  -1.3868  -1.3868
    -0.8630  -0.8630   5.2626   5.2626   5.8252   5.8252   6.5217

          k = 0.4907 0.1805 0.0000 ( 12108 PWs)   bands (ev):

   -50.4768 -50.4767 -22.3964 -22.3959 -22.3949 -22.3948 -22.3931 -22.3870
   -12.5435 -12.5390 -12.5364 -12.5349 -12.5286 -12.5254 -12.4071 -12.4046
   -12.3945 -12.3912  -6.2146  -5.5858  -2.2835  -1.8571  -1.5459  -1.2028
    -0.9988  -0.8386   4.6415   5.3843   5.5861   5.9973   6.6594

          k = 0.4907 0.1805 0.1621 ( 12103 PWs)   bands (ev):

   -50.4768 -50.4767 -22.3965 -22.3961 -22.3951 -22.3949 -22.3923 -22.3873
   -12.5434 -12.5396 -12.5363 -12.5349 -12.5282 -12.5254 -12.4069 -12.4048
   -12.3942 -12.3914  -6.1769  -5.6326  -2.3007  -1.8372  -1.5463  -1.1781
    -1.0086  -0.8563   4.7508   5.4036   5.6635   6.1976   6.3913

          k = 0.4907 0.1805 0.3242 ( 12096 PWs)   bands (ev):

   -50.4768 -50.4767 -22.3966 -22.3964 -22.3952 -22.3950 -22.3909 -22.3881
   -12.5430 -12.5408 -12.5360 -12.5352 -12.5272 -12.5256 -12.4065 -12.4052
   -12.3936 -12.3920  -6.0709  -5.7570  -2.2728  -1.9616  -1.4059  -1.1330
    -1.0375  -0.9174   5.0291   5.6131   5.7573   6.1405   6.5416

          k = 0.4907 0.1805-0.4863 ( 12100 PWs)   bands (ev):

   -50.4767 -50.4767 -22.3966 -22.3966 -22.3951 -22.3951 -22.3894 -22.3894
   -12.5421 -12.5421 -12.5356 -12.5356 -12.5262 -12.5262 -12.4059 -12.4059
   -12.3928 -12.3928  -5.9185  -5.9185  -2.1476  -2.1476  -1.2200  -1.2200
    -0.9966  -0.9966   5.4078   5.4078   6.0562   6.0562   6.5696

          k =-0.3271-0.7220 0.0000 ( 12098 PWs)   bands (ev):

   -50.4768 -50.4767 -22.3967 -22.3964 -22.3949 -22.3949 -22.3930 -22.3870
   -12.5427 -12.5401 -12.5350 -12.5341 -12.5277 -12.5249 -12.4069 -12.4044
   -12.3948 -12.3911  -5.9807  -5.6316  -2.5699  -1.8031  -1.5618  -1.2492
    -1.1686  -0.9789   4.8757   5.5589   5.6558   5.9170   6.5679

          k =-0.3271-0.7220 0.1621 ( 12107 PWs)   bands (ev):

   -50.4768 -50.4767 -22.3968 -22.3966 -22.3951 -22.3949 -22.3923 -22.3873
   -12.5428 -12.5406 -12.5349 -12.5340 -12.5273 -12.5249 -12.4067 -12.4045
   -12.3946 -12.3913  -5.9545  -5.6501  -2.5927  -2.0172  -1.3761  -1.2712
    -1.0807  -0.9817   4.9292   5.4550   5.6161   6.1567   6.6102

          k =-0.3271-0.7220 0.3242 ( 12085 PWs)   bands (ev):

   -50.4768 -50.4767 -22.3969 -22.3969 -22.3952 -22.3950 -22.3908 -22.3881
   -12.5428 -12.5416 -12.5347 -12.5341 -12.5264 -12.5249 -12.4063 -12.4050
   -12.3939 -12.3920  -5.8838  -5.7057  -2.5997  -2.2991  -1.2440  -1.1766
    -1.0391  -0.9383   5.0642   5.3992   5.7515   6.2032   6.7385

          k =-0.3271-0.7220-0.4863 ( 12088 PWs)   bands (ev):

   -50.4767 -50.4767 -22.3970 -22.3970 -22.3951 -22.3951 -22.3894 -22.3894
   -12.5425 -12.5425 -12.5344 -12.5344 -12.5255 -12.5255 -12.4056 -12.4056
   -12.3929 -12.3929  -5.7911  -5.7911  -2.5075  -2.5075  -1.1809  -1.1809
    -0.9546  -0.9546   5.2726   5.2726   6.0182   6.0182   6.7497

          k =-0.1636-0.5415 0.0000 ( 12124 PWs)   bands (ev):

   -50.4768 -50.4767 -22.3965 -22.3960 -22.3950 -22.3948 -22.3931 -22.3870
   -12.5416 -12.5408 -12.5362 -12.5348 -12.5285 -12.5260 -12.4066 -12.4041
   -12.3946 -12.3910  -6.1291  -5.6569  -2.3182  -1.6602  -1.5422  -1.3637
    -1.1240  -0.9219   4.8282   5.5247   6.2426   6.2524   6.7567

          k =-0.1636-0.5415 0.1621 ( 12119 PWs)   bands (ev):

   -50.4768 -50.4767 -22.3965 -22.3962 -22.3952 -22.3949 -22.3923 -22.3873
   -12.5419 -12.5412 -12.5361 -12.5349 -12.5281 -12.5259 -12.4064 -12.4043
   -12.3944 -12.3913  -6.0973  -5.6868  -2.3600  -1.8383  -1.4781  -1.2651
    -1.0634  -0.9015   4.9247   5.4965   5.8987   6.7101   6.7237

          k =-0.1636-0.5415 0.3242 ( 12109 PWs)   bands (ev):

   -50.4768 -50.4767 -22.3967 -22.3965 -22.3952 -22.3950 -22.3909 -22.3881
   -12.5424 -12.5420 -12.5358 -12.5351 -12.5270 -12.5258 -12.4059 -12.4047
   -12.3937 -12.3919  -6.0098  -5.7709  -2.3875  -2.1001  -1.3910  -1.1928
    -0.9591  -0.8259   5.1623   5.4504   5.7747   6.3406   6.7568

          k =-0.1636-0.5415-0.4863 ( 12108 PWs)   bands (ev):

   -50.4767 -50.4767 -22.3967 -22.3967 -22.3951 -22.3951 -22.3894 -22.3894
   -12.5425 -12.5425 -12.5354 -12.5354 -12.5261 -12.5261 -12.4053 -12.4053
   -12.3928 -12.3928  -5.8896  -5.8896  -2.3021  -2.3021  -1.2817  -1.2817
    -0.8314  -0.8314   5.3897   5.3897   5.8732   5.8733   6.9353

          k = 0.0000-0.3610 0.0000 ( 12153 PWs)   bands (ev):

   -50.4768 -50.4767 -22.3960 -22.3951 -22.3950 -22.3946 -22.3932 -22.3869
   -12.5424 -12.5395 -12.5392 -12.5373 -12.5293 -12.5273 -12.4064 -12.4041
   -12.3939 -12.3912  -6.4094  -5.7039  -1.9600  -1.8033  -1.3674  -0.9640
    -0.8985  -0.8494   4.5385   5.5801   5.6335   6.6178   6.7946

          k = 0.0000-0.3610 0.1621 ( 12131 PWs)   bands (ev):

   -50.4768 -50.4767 -22.3960 -22.3955 -22.3951 -22.3946 -22.3924 -22.3873
   -12.5425 -12.5401 -12.5391 -12.5374 -12.5288 -12.5271 -12.4062 -12.4042
   -12.3938 -12.3914  -6.3685  -5.7588  -2.0341  -1.6837  -1.3390  -1.0817
    -0.9334  -0.7496   4.6875   5.5323   5.6696   6.3843   6.5520

          k = 0.0000-0.3610 0.3242 ( 12105 PWs)   bands (ev):

   -50.4768 -50.4767 -22.3961 -22.3960 -22.3950 -22.3947 -22.3909 -22.3881
   -12.5426 -12.5412 -12.5387 -12.5378 -12.5278 -12.5269 -12.4058 -12.4046
   -12.3932 -12.3919  -6.2528  -5.9023  -2.0273  -1.7139  -1.2594  -1.0273
    -1.0258  -0.7234   5.0887   5.4968   5.7821   5.9927   6.2365

          k = 0.0000-0.3610-0.4863 ( 12100 PWs)   bands (ev):

   -50.4768 -50.4768 -22.3962 -22.3962 -22.3949 -22.3949 -22.3894 -22.3894
   -12.5422 -12.5422 -12.5383 -12.5383 -12.5271 -12.5271 -12.4052 -12.4052
   -12.3925 -12.3925  -6.0845  -6.0845  -1.8969  -1.8969  -1.1459  -1.1459
    -0.8344  -0.8344   5.5335   5.5335   5.8053   5.8053   5.9738

          k = 0.6543 0.0000 0.0000 ( 12094 PWs)   bands (ev):

   -50.4768 -50.4767 -22.3966 -22.3960 -22.3955 -22.3953 -22.3930 -22.3870
   -12.5440 -12.5390 -12.5331 -12.5314 -12.5290 -12.5244 -12.4077 -12.4050
   -12.3952 -12.3910  -6.0194  -5.4498  -2.2934  -1.7500  -1.7474  -1.6491
    -1.4110  -0.8215   4.4104   4.9092   5.3466   6.4186   6.4768

          k = 0.6543 0.0000 0.1621 ( 12090 PWs)   bands (ev):

   -50.4768 -50.4767 -22.3966 -22.3960 -22.3959 -22.3954 -22.3923 -22.3873
   -12.5439 -12.5395 -12.5330 -12.5315 -12.5285 -12.5246 -12.4075 -12.4052
   -12.3949 -12.3913  -5.9847  -5.4915  -2.2550  -1.8001  -1.7335  -1.6512
    -1.3795  -0.8917   4.6127   4.9366   5.5615   6.4784   6.4848

          k = 0.6543 0.0000 0.3242 ( 12094 PWs)   bands (ev):

   -50.4768 -50.4767 -22.3967 -22.3964 -22.3959 -22.3955 -22.3908 -22.3881
   -12.5432 -12.5408 -12.5326 -12.5318 -12.5274 -12.5252 -12.4070 -12.4057
   -12.3942 -12.3920  -5.8873  -5.6027  -2.1472  -1.8334  -1.7937  -1.6720
    -1.2931  -1.0454   5.1418   5.1645   6.0285   6.3545   6.4131

          k = 0.6543 0.0000-0.4863 ( 12072 PWs)   bands (ev):

   -50.4767 -50.4767 -22.3966 -22.3966 -22.3957 -22.3957 -22.3894 -22.3894
   -12.5422 -12.5422 -12.5322 -12.5322 -12.5261 -12.5261 -12.4063 -12.4063
   -12.3931 -12.3931  -5.7485  -5.7485  -1.9927  -1.9927  -1.7311  -1.7311
    -1.1863  -1.1863   5.5860   5.5860   5.9903   5.9903   6.5057

          k =-0.1636-0.9025 0.0000 ( 12065 PWs)   bands (ev):

   -50.4768 -50.4767 -22.3968 -22.3964 -22.3956 -22.3954 -22.3929 -22.3870
   -12.5438 -12.5395 -12.5314 -12.5304 -12.5285 -12.5241 -12.4077 -12.4050
   -12.3956 -12.3909  -5.8300  -5.4460  -2.4345  -1.9762  -1.7583  -1.5720
    -1.4726  -0.9881   4.2966   4.9741   5.1510   5.9972   6.9162

          k =-0.1636-0.9025 0.1621 ( 12089 PWs)   bands (ev):

   -50.4768 -50.4767 -22.3968 -22.3964 -22.3959 -22.3955 -22.3922 -22.3873
   -12.5437 -12.5400 -12.5313 -12.5303 -12.5282 -12.5242 -12.4075 -12.4051
   -12.3953 -12.3912  -5.8032  -5.4694  -2.4260  -1.9965  -1.7996  -1.5562
    -1.4589  -1.0083   4.4529   4.9300   5.4997   6.1409   6.8564

          k =-0.1636-0.9025 0.3242 ( 12096 PWs)   bands (ev):

   -50.4768 -50.4767 -22.3969 -22.3967 -22.3960 -22.3956 -22.3908 -22.3881
   -12.5433 -12.5412 -12.5310 -12.5304 -12.5271 -12.5248 -12.4070 -12.4056
   -12.3944 -12.3920  -5.7302  -5.5359  -2.3804  -2.1106  -1.7971  -1.6109
    -1.3525  -1.0817   4.8688   5.1993   5.9857   6.2588   6.7571

          k =-0.1636-0.9025-0.4863 ( 12088 PWs)   bands (ev):

   -50.4767 -50.4767 -22.3969 -22.3969 -22.3958 -22.3958 -22.3894 -22.3894
   -12.5424 -12.5424 -12.5307 -12.5307 -12.5258 -12.5258 -12.4063 -12.4063
   -12.3932 -12.3932  -5.6315  -5.6315  -2.2696  -2.2696  -1.7112  -1.7112
    -1.2078  -1.2078   5.4244   5.4245   5.8857   5.8857   6.9560

          k = 0.0000-0.7220 0.0000 ( 12119 PWs)   bands (ev):

   -50.4768 -50.4767 -22.3966 -22.3961 -22.3957 -22.3953 -22.3930 -22.3870
   -12.5428 -12.5403 -12.5328 -12.5313 -12.5292 -12.5250 -12.4071 -12.4045
   -12.3953 -12.3909  -5.8921  -5.5653  -2.2579  -1.9869  -1.5729  -1.4597
    -1.3874  -1.2087   4.4849   5.5476   5.5570   6.1095   7.0068

          k = 0.0000-0.7220 0.1621 ( 12102 PWs)   bands (ev):

   -50.4768 -50.4767 -22.3967 -22.3960 -22.3960 -22.3953 -22.3922 -22.3873
   -12.5429 -12.5407 -12.5327 -12.5314 -12.5286 -12.5250 -12.4069 -12.4047
   -12.3950 -12.3912  -5.8674  -5.5827  -2.2905  -1.9520  -1.8105  -1.4341
    -1.2632  -1.1328   4.6015   5.3277   6.0184   6.2376   6.7476

          k = 0.0000-0.7220 0.3242 ( 12102 PWs)   bands (ev):

   -50.4768 -50.4767 -22.3968 -22.3966 -22.3959 -22.3955 -22.3908 -22.3881
   -12.5429 -12.5417 -12.5324 -12.5317 -12.5273 -12.5253 -12.4064 -12.4051
   -12.3942 -12.3920  -5.8010  -5.6347  -2.3182  -2.0711  -1.8533  -1.5557
    -1.0899  -1.0145   4.8956   5.5184   6.0452   6.3992   6.5642

          k = 0.0000-0.7220-0.4863 ( 12126 PWs)   bands (ev):

   -50.4767 -50.4767 -22.3968 -22.3968 -22.3957 -22.3957 -22.3894 -22.3894
   -12.5426 -12.5426 -12.5320 -12.5320 -12.5261 -12.5261 -12.4058 -12.4058
   -12.3931 -12.3931  -5.7143  -5.7143  -2.2515  -2.2515  -1.7102  -1.7102
    -0.9948  -0.9948   5.3674   5.3674   6.0541   6.0541   6.9235

          k =-0.9814 0.0000 0.0000 ( 12070 PWs)   bands (ev):

   -50.4768 -50.4767 -22.3969 -22.3965 -22.3958 -22.3956 -22.3929 -22.3870
   -12.5443 -12.5394 -12.5296 -12.5293 -12.5282 -12.5236 -12.4081 -12.4052
   -12.3960 -12.3908  -5.7433  -5.3379  -2.3761  -2.2386  -1.9084  -1.5985
    -1.5693  -0.9001   4.1155   4.6932   4.7416   5.7147   8.1172

          k =-0.9814 0.0000 0.1621 ( 12068 PWs)   bands (ev):

   -50.4768 -50.4767 -22.3969 -22.3965 -22.3961 -22.3957 -22.3922 -22.3873
   -12.5441 -12.5399 -12.5295 -12.5287 -12.5283 -12.5239 -12.4079 -12.4054
   -12.3956 -12.3911  -5.7162  -5.3645  -2.3426  -2.2017  -1.9385  -1.6490
    -1.5537  -0.9827   4.3234   4.6719   5.0946   5.8770   7.8202

          k =-0.9814 0.0000 0.3242 ( 12094 PWs)   bands (ev):

   -50.4768 -50.4767 -22.3970 -22.3967 -22.3963 -22.3959 -22.3908 -22.3881
   -12.5435 -12.5411 -12.5293 -12.5286 -12.5274 -12.5247 -12.4073 -12.4059
   -12.3947 -12.3921  -5.6420  -5.4381  -2.2516  -2.0973  -2.0173  -1.7800
    -1.4971  -1.1743   4.8528   4.9581   5.7214   6.3281   7.1061

          k =-0.9814 0.0000-0.4863 ( 12104 PWs)   bands (ev):

   -50.4767 -50.4767 -22.3969 -22.3969 -22.3961 -22.3961 -22.3893 -22.3893
   -12.5424 -12.5424 -12.5289 -12.5289 -12.5259 -12.5259 -12.4066 -12.4066
   -12.3934 -12.3934  -5.5399  -5.5399  -2.1305  -2.1305  -1.9452  -1.9452
    -1.3693  -1.3693   5.2746   5.2746   6.3266   6.3266   6.7474

     the Fermi energy is     1.3032 ev

!    total energy              =    -755.96622438 Ry
     estimated scf accuracy    <          1.7E-11 Ry
     smearing contrib. (-TS)   =       0.00000000 Ry
     internal energy E=F+TS    =    -755.96622438 Ry

     The total energy is F=E-TS. E is the sum of the following terms:
     one-electron contribution =    -449.36382485 Ry
     hartree contribution      =     250.25835214 Ry
     xc contribution           =    -110.68883195 Ry
     ewald contribution        =    -223.50302113 Ry
     one-center paw contrib.   =    -222.66889859 Ry

     convergence has been achieved in  13 iterations

     Forces acting on atoms (cartesian axes, Ry/au):

     atom    1 type  2   force =    -0.00000000    0.00010391    0.00000000
     atom    2 type  2   force =     0.00000000   -0.00010391    0.00000000
     atom    3 type  3   force =     0.00000000   -0.00018429    0.00000000
     atom    4 type  3   force =    -0.00000000    0.00018429    0.00000000
     atom    5 type  1   force =    -0.00000000    0.00001529    0.00018397
     atom    6 type  1   force =    -0.00000000    0.00001529   -0.00018397
     atom    7 type  1   force =     0.00000000   -0.00001529    0.00018397
     atom    8 type  1   force =     0.00000000   -0.00001529   -0.00018397
     atom    9 type  1   force =    -0.00008648    0.00022503    0.00000000
     atom   10 type  1   force =    -0.00008648   -0.00022503    0.00000000
     atom   11 type  1   force =     0.00008648   -0.00022503    0.00000000
     atom   12 type  1   force =     0.00008648    0.00022503    0.00000000

     Total force =     0.000677     Total SCF correction =     0.000008


     Computing stress (Cartesian axis) and pressure

          total   stress  (Ry/bohr**3)                   (kbar)     P=       -0.20
  -0.00000170   0.00000000   0.00000000           -0.25        0.00        0.00
   0.00000000  -0.00000112   0.00000000            0.00       -0.17        0.00
   0.00000000   0.00000000  -0.00000127            0.00        0.00       -0.19


     Writing all to output data dir ./nagah4.save/
 
     init_run     :      0.95s CPU      1.08s WALL (       2 calls)
     electrons    :    268.09s CPU    276.08s WALL (      19 calls)
     update_pot   :      3.45s CPU      3.47s WALL (      17 calls)
     forces       :      2.58s CPU      2.63s WALL (      19 calls)
     stress       :      4.77s CPU      4.80s WALL (      19 calls)

     Called by init_run:
     wfcinit      :      0.26s CPU      0.30s WALL (       2 calls)
     potinit      :      0.20s CPU      0.22s WALL (       2 calls)
     hinit0       :      0.24s CPU      0.25s WALL (       2 calls)

     Called by electrons:
     c_bands      :    215.43s CPU    221.80s WALL (     440 calls)
     sum_band     :     28.75s CPU     29.32s WALL (     440 calls)
     v_of_rho     :      2.25s CPU      2.27s WALL (     458 calls)
     newd         :      2.34s CPU      2.37s WALL (     458 calls)
     PAW_pot      :     18.65s CPU     18.82s WALL (     475 calls)
     mix_rho      :      0.83s CPU      0.84s WALL (     440 calls)

     Called by c_bands:
     init_us_2    :      2.05s CPU      2.12s WALL (   12181 calls)
     init_us_2:cp :      2.01s CPU      2.09s WALL (   12181 calls)
     cegterg      :    172.07s CPU    175.95s WALL (    5773 calls)

     Called by *egterg:
     cdiaghg      :     32.73s CPU     33.22s WALL (   32761 calls)
     h_psi        :    118.64s CPU    121.69s WALL (   33074 calls)
     s_psi        :      2.69s CPU      2.77s WALL (   33074 calls)
     g_psi        :      0.52s CPU      0.53s WALL (   27275 calls)

     Called by h_psi:
     h_psi:calbec :      5.35s CPU      5.48s WALL (   33074 calls)
     vloc_psi     :    109.18s CPU    111.99s WALL (   33074 calls)
     add_vuspsi   :      3.35s CPU      3.45s WALL (   33074 calls)

     General routines
     calbec       :      6.86s CPU      7.04s WALL (   40250 calls)
     fft          :      1.37s CPU      1.39s WALL (    6409 calls)
     ffts         :      0.25s CPU      0.26s WALL (     898 calls)
     fftw         :    117.21s CPU    120.20s WALL ( 1293498 calls)
     interpolate  :      0.25s CPU      0.27s WALL (     458 calls)
 
     Parallel routines
 
     PWSCF        :   4m41.32s CPU   4m49.94s WALL

 
   This run was terminated on:  12:28:10   1Dec2023            

=------------------------------------------------------------------------------=
   JOB DONE.
=------------------------------------------------------------------------------=
Job execution finished at: Fri Dec  1 12:28:10 IST 2023
