==========================================
SLURM_CLUSTER_NAME = paramganga
SLURM_ARRAY_JOB_ID = 
SLURM_ARRAY_TASK_ID = 
SLURM_ARRAY_TASK_COUNT = 
SLURM_ARRAY_TASK_MAX = 
SLURM_ARRAY_TASK_MIN = 
SLURM_JOB_ACCOUNT = iitr
SLURM_JOB_ID = 168273
SLURM_JOB_NAME = 19280
SLURM_JOB_NODELIST = cn[202-204]
SLURM_JOB_USER = garima.iitr
SLURM_JOB_UID = 38339
SLURM_JOB_PARTITION = small
SLURM_TASK_PID = 7716
SLURM_SUBMIT_DIR = /home/garima.iitr/.cache/.es/compmat/nah
SLURM_CPUS_ON_NODE = 48
SLURM_NTASKS = 144
SLURM_TASK_PID = 7716
==========================================
cn202
 
:: initializing oneAPI environment ...
   slurm_script: BASH_VERSION = 4.2.46(2)-release
   args: Using "$@" for setvars.sh arguments: 
:: advisor -- latest
:: ccl -- latest
:: clck -- latest
:: compiler -- latest
:: dal -- latest
:: debugger -- latest
:: dev-utilities -- latest
:: dnnl -- latest
:: dpcpp-ct -- latest
:: dpl -- latest
:: inspector -- latest
:: intelpython -- latest
:: ipp -- latest
:: ippcp -- latest
:: ipp -- latest
:: itac -- latest
:: mkl -- latest
:: mpi -- latest
:: tbb -- latest
:: vpl -- latest
:: vtune -- latest
:: oneAPI environment initialized ::
 
Job execution start: Tue Oct 31 20:08:11 IST 2023
Job submitted by garima.iitr
The job ID is:168273

     Program PWSCF v.7.1 starts on 31Oct2023 at 20: 8:15 

     This program is part of the open-source Quantum ESPRESSO suite
     for quantum simulation of materials; please cite
         "P. Giannozzi et al., J. Phys.:Condens. Matter 21 395502 (2009);
         "P. Giannozzi et al., J. Phys.:Condens. Matter 29 465901 (2017);
         "P. Giannozzi et al., J. Chem. Phys. 152 154105 (2020);
          URL http://www.quantum-espresso.org", 
     in publications or presentations arising from this work. More details at
     http://www.quantum-espresso.org/quote

     Parallel version (MPI & OpenMP), running on     144 processor cores
     Number of MPI processes:               144
     Threads/MPI process:                     1

     MPI processes distributed on     3 nodes
     168998 MiB available memory on the printing compute node when the environment starts
 
     Reading input from nah.in

     Current dimensions of program PWSCF are:
     Max number of different atomic species (ntypx) = 10
     Max number of k-points (npk) =  40000
     Max angular momentum in pseudopotentials (lmaxx) =  4
     Message from routine volume:
     axis vectors are left-handed

     IMPORTANT: XC functional enforced from input :
     Exchange-correlation= PBE
                           (   1   4   3   4   0   0   0)
     Any further DFT definition will be discarded
     Please, verify this is what you really want

     Message from routine setup:
     using ibrav=0 with symmetry is DISCOURAGED, use correct ibrav instead
 
     K-points division:     npool     =       8
     R & G space division:  proc/nbgrp/npool/nimage =      18
     Subspace diagonalization in iterative solution of the eigenvalue problem:
     a serial algorithm will be used

 
     Parallelization info
     --------------------
     sticks:   dense  smooth     PW     G-vecs:    dense   smooth      PW
     Min          58      47     14                 1244      895     151
     Max          59      48     15                 1247      898     155
     Sum        1045     847    253                22419    16145    2733
 
     Using Slab Decomposition
 


     bravais-lattice index     =            0
     lattice parameter (alat)  =       9.0194  a.u.
     unit-cell volume          =     183.4287 (a.u.)^3
     number of atoms/cell      =            2
     number of atomic types    =            2
     number of electrons       =        10.00
     number of Kohn-Sham states=            9
     kinetic-energy cutoff     =      75.0000  Ry
     charge density cutoff     =     375.0000  Ry
     scf convergence threshold =      1.0E-08
     mixing beta               =       0.7000
     number of iterations used =            8  plain     mixing
     energy convergence thresh.=      1.0E-04
     force convergence thresh. =      1.0E-03
     press convergence thresh. =      5.0E-01
     Exchange-correlation= PBE
                           (   1   4   3   4   0   0   0)
     nstep                     =           50


     celldm(1)=   9.019360  celldm(2)=   0.000000  celldm(3)=   0.000000
     celldm(4)=   0.000000  celldm(5)=   0.000000  celldm(6)=   0.000000

     crystal axes: (cart. coord. in units of alat)
               a(1) = (   0.500000   0.500000   0.000000 )  
               a(2) = (   0.500000   0.000000   0.500000 )  
               a(3) = (   0.000000   0.500000   0.500000 )  

     reciprocal axes: (cart. coord. in units 2 pi/alat)
               b(1) = (  1.000000  1.000000 -1.000000 )  
               b(2) = (  1.000000 -1.000000  1.000000 )  
               b(3) = ( -1.000000  1.000000  1.000000 )  


     PseudoPot. # 1 for H  read from file:
     /home/garima.iitr/.cache/.es/compmat/nah/H.pbe-rrkjus_psl.1.0.0.UPF
     MD5 check sum: 3f4114867bd07edc7f1424d066fc1888
     Pseudo is Ultrasoft, Zval =  1.0
     Generated using &quot;atomic&quot; code by A. Dal Corso  v.6.3MaX
     Using radial grid of  929 points,  2 beta functions with: 
                l(1) =   0
                l(2) =   0
     Q(r) pseudized with 0 coefficients 


     PseudoPot. # 2 for Na read from file:
     /home/garima.iitr/.cache/.es/compmat/nah/na_pbe_v1.5.uspp.F.UPF
     MD5 check sum: 44600605ef58000f06b90626533354dc
     Pseudo is Ultrasoft, Zval =  9.0
     Generated by new atomic code, or converted to UPF format
     Using radial grid of  819 points,  5 beta functions with: 
                l(1) =   0
                l(2) =   0
                l(3) =   1
                l(4) =   1
                l(5) =   2
     Q(r) pseudized with  8 coefficients,  rinner =    1.250   1.250   1.250
                                                       1.250   1.250

     atomic species   valence    mass     pseudopotential
        H              1.00     1.00750     H ( 1.00)
        Na             9.00    22.98900     Na( 1.00)

     48 Sym. Ops., with inversion, found



   Cartesian axes

     site n.     atom                  positions (alat units)
         1           Na  tau(   1) = (   0.0000000   0.0000000   0.0000000  )
         2           H   tau(   2) = (   0.5000000   0.5000000   0.5000000  )

     number of k points=    16  Marzari-Vanderbilt smearing, width (Ry)=  0.0050
                       cart. coord. in units 2pi/alat
        k(    1) = (   0.0000000   0.0000000   0.0000000), wk =   0.0092593
        k(    2) = (  -0.1666667   0.1666667   0.1666667), wk =   0.0740741
        k(    3) = (  -0.3333333   0.3333333   0.3333333), wk =   0.0740741
        k(    4) = (   0.5000000  -0.5000000  -0.5000000), wk =   0.0370370
        k(    5) = (   0.0000000   0.0000000   0.3333333), wk =   0.0555556
        k(    6) = (  -0.1666667   0.1666667   0.5000000), wk =   0.2222222
        k(    7) = (   0.6666667  -0.6666667  -0.3333333), wk =   0.2222222
        k(    8) = (   0.5000000  -0.5000000  -0.1666667), wk =   0.2222222
        k(    9) = (   0.3333333  -0.3333333   0.0000000), wk =   0.1111111
        k(   10) = (   0.0000000   0.0000000   0.6666667), wk =   0.0555556
        k(   11) = (   0.8333333  -0.8333333  -0.1666667), wk =   0.2222222
        k(   12) = (   0.6666667  -0.6666667  -0.0000000), wk =   0.1111111
        k(   13) = (   0.0000000   0.0000000  -1.0000000), wk =   0.0277778
        k(   14) = (   1.0000000  -0.6666667  -0.3333333), wk =   0.2222222
        k(   15) = (   0.8333333  -0.5000000  -0.1666667), wk =   0.2222222
        k(   16) = (   0.0000000   0.3333333  -1.0000000), wk =   0.1111111

     Dense  grid:    22419 G-vectors     FFT dimensions: (  40,  40,  40)

     Smooth grid:    16145 G-vectors     FFT dimensions: (  36,  36,  36)

     Estimated max dynamical RAM per process >       5.69 MB

     Estimated total dynamical RAM >     780.82 MB

     Initial potential from superposition of free atoms

     starting charge       9.9937, renormalised to      10.0000
     Starting wfcs are    6 randomized atomic wfcs +    3 random wfcs

     total cpu time spent up to now is        0.4 secs

     Self-consistent Calculation

     iteration #  1     ecut=    75.00 Ry     beta= 0.70
     Davidson diagonalization with overlap
     ethr =  1.00E-02,  avg # of iterations =  5.5

     Threshold (ethr) on eigenvalues was too large:
     Diagonalizing with lowered threshold

     Davidson diagonalization with overlap
     ethr =  9.22E-04,  avg # of iterations =  1.0

     total cpu time spent up to now is        0.5 secs

     total energy              =     -96.52669142 Ry
     estimated scf accuracy    <       0.09182796 Ry

     iteration #  2     ecut=    75.00 Ry     beta= 0.70
     Davidson diagonalization with overlap
     ethr =  9.18E-04,  avg # of iterations =  1.9

     total cpu time spent up to now is        0.5 secs

     total energy              =     -96.54025987 Ry
     estimated scf accuracy    <       0.00154798 Ry

     iteration #  3     ecut=    75.00 Ry     beta= 0.70
     Davidson diagonalization with overlap
     ethr =  1.55E-05,  avg # of iterations =  4.4

     total cpu time spent up to now is        0.6 secs

     total energy              =     -96.54062264 Ry
     estimated scf accuracy    <       0.00009365 Ry

     iteration #  4     ecut=    75.00 Ry     beta= 0.70
     Davidson diagonalization with overlap
     ethr =  9.36E-07,  avg # of iterations =  2.9

     total cpu time spent up to now is        0.6 secs

     total energy              =     -96.54064742 Ry
     estimated scf accuracy    <       0.00000939 Ry

     iteration #  5     ecut=    75.00 Ry     beta= 0.70
     Davidson diagonalization with overlap
     ethr =  9.39E-08,  avg # of iterations =  2.0

     total cpu time spent up to now is        0.6 secs

     total energy              =     -96.54064921 Ry
     estimated scf accuracy    <       0.00000006 Ry

     iteration #  6     ecut=    75.00 Ry     beta= 0.70
     Davidson diagonalization with overlap
     ethr =  5.78E-10,  avg # of iterations =  2.1

     total cpu time spent up to now is        0.6 secs

     End of self-consistent calculation

          k = 0.0000 0.0000 0.0000 (  1989 PWs)   bands (ev):

   -49.3510 -21.2312 -21.2312 -21.2312  -2.8981  11.5736  16.7061  16.7064
    17.7029

          k =-0.1667 0.1667 0.1667 (  2007 PWs)   bands (ev):

   -49.3490 -21.2581 -21.2344 -21.2344  -2.4126   9.9434  13.4322  15.6120
    15.6120

          k =-0.3333 0.3333 0.3333 (  2006 PWs)   bands (ev):

   -49.3451 -21.3111 -21.2407 -21.2407  -1.1155   6.5334  12.1817  14.7366
    14.7366

          k = 0.5000-0.5000-0.5000 (  2006 PWs)   bands (ev):

   -49.3431 -21.3373 -21.2439 -21.2439  -0.0547   4.6451  11.8859  14.4415
    14.4415

          k = 0.0000 0.0000 0.3333 (  2009 PWs)   bands (ev):

   -49.3484 -21.2571 -21.2402 -21.2402  -2.2578   9.9055  13.8938  14.0805
    14.0805

          k =-0.1667 0.1667 0.5000 (  2008 PWs)   bands (ev):

   -49.3451 -21.2953 -21.2480 -21.2478  -1.2424   7.6693  10.9488  13.2847
    15.1836

          k = 0.6667-0.6667-0.3333 (  2018 PWs)   bands (ev):

   -49.3424 -21.3254 -21.2588 -21.2497   0.0385   5.3413   9.7351  13.3083
    14.6196

          k = 0.5000-0.5000-0.1667 (  2020 PWs)   bands (ev):

   -49.3431 -21.3174 -21.2622 -21.2439  -0.3228   5.9715   9.4598  14.1873
    14.8248

          k = 0.3333-0.3333 0.0000 (  2003 PWs)   bands (ev):

   -49.3464 -21.2835 -21.2505 -21.2363  -1.6567   8.4732  10.6743  15.2438
    15.8518

          k = 0.0000 0.0000 0.6667 (  2016 PWs)   bands (ev):

   -49.3431 -21.3043 -21.2580 -21.2580  -0.6188   7.1267  11.7295  12.3174
    12.3174

          k = 0.8333-0.8333-0.1667 (  2013 PWs)   bands (ev):

   -49.3412 -21.3161 -21.2737 -21.2612   0.3695   6.0988   8.7812  12.1475
    12.8044

          k = 0.6667-0.6667-0.0000 (  2015 PWs)   bands (ev):

   -49.3411 -21.3009 -21.2976 -21.2542   0.5510   6.6280   6.7914  12.8004
    13.5047

          k = 0.0000 0.0000-1.0000 (  2044 PWs)   bands (ev):

   -49.3405 -21.3256 -21.2670 -21.2670   0.6357   5.5327  11.0008  11.7444
    11.7444

          k = 1.0000-0.6667-0.3333 (  2012 PWs)   bands (ev):

   -49.3425 -21.3082 -21.2712 -21.2528  -0.1922   6.7303   8.7161  11.7464
    16.6762

          k = 0.8333-0.5000-0.1667 (  2012 PWs)   bands (ev):

   -49.3411 -21.3108 -21.2832 -21.2587   0.5548   6.0184   7.8249  10.9008
    16.6840

          k = 0.0000 0.3333-1.0000 (  2018 PWs)   bands (ev):

   -49.3405 -21.3109 -21.2816 -21.2688   0.7731   6.1594   8.0699   9.7798
    16.1101

     the Fermi energy is     1.2796 ev

!    total energy              =     -96.54064924 Ry
     estimated scf accuracy    <          1.6E-09 Ry
     smearing contrib. (-TS)   =       0.00000000 Ry
     internal energy E=F+TS    =     -96.54064924 Ry

     The total energy is F=E-TS. E is the sum of the following terms:
     one-electron contribution =     -78.09933266 Ry
     hartree contribution      =      40.50708725 Ry
     xc contribution           =     -15.09009649 Ry
     ewald contribution        =     -43.85830734 Ry

     convergence has been achieved in   6 iterations

     Forces acting on atoms (cartesian axes, Ry/au):

     atom    1 type  2   force =     0.00000000    0.00000000    0.00000000
     atom    2 type  1   force =     0.00000000    0.00000000    0.00000000

     Total force =     0.000000     Total SCF correction =     0.000000


     Computing stress (Cartesian axis) and pressure

          total   stress  (Ry/bohr**3)                   (kbar)     P=        9.65
   0.00006563   0.00000000  -0.00000000            9.65        0.00       -0.00
   0.00000000   0.00006563  -0.00000000            0.00        9.65       -0.00
   0.00000000  -0.00000000   0.00006563            0.00       -0.00        9.65


     BFGS Geometry Optimization
     Energy error            =      0.0E+00 Ry
     Gradient error          =      0.0E+00 Ry/Bohr
     Cell gradient error     =      9.7E+00 kbar

     number of scf cycles    =   1
     number of bfgs steps    =   0

     enthalpy           new  =     -96.5406492405 Ry

     new trust radius        =       0.0044440264 bohr
     Message from routine volume:
     axis vectors are left-handed
     new conv_thr            =       0.0000000100 Ry

     new unit-cell volume =    184.33298 a.u.^3 (    27.31533 Ang^3 )
     density =      1.45878 g/cm^3

CELL_PARAMETERS (alat=  9.01936044)
   0.500820319   0.500820319  -0.000000000
   0.500820319  -0.000000000   0.500820319
   0.000000000   0.500820319   0.500820319

ATOMIC_POSITIONS (crystal)
Na            0.0000000000        0.0000000000        0.0000000000
H             0.5000000000        0.5000000000        0.5000000000



     Writing config-only to output data dir temp/NaH.save/
     NEW-OLD atomic charge density approx. for the potential
     extrapolated charge   10.04903, renormalised to   10.00000

     total cpu time spent up to now is        0.7 secs

     Self-consistent Calculation

     iteration #  1     ecut=    75.00 Ry     beta= 0.70
     Davidson diagonalization with overlap
     ethr =  1.00E-06,  avg # of iterations =  2.5

     total cpu time spent up to now is        0.7 secs

     total energy              =     -96.53940188 Ry
     estimated scf accuracy    <       0.00075326 Ry

     iteration #  2     ecut=    75.00 Ry     beta= 0.70
     Davidson diagonalization with overlap
     ethr =  7.53E-06,  avg # of iterations =  2.8

     total cpu time spent up to now is        0.7 secs

     total energy              =     -96.54073522 Ry
     estimated scf accuracy    <       0.00125300 Ry

     iteration #  3     ecut=    75.00 Ry     beta= 0.70
     Davidson diagonalization with overlap
     ethr =  7.53E-06,  avg # of iterations =  1.8

     total cpu time spent up to now is        0.7 secs

     total energy              =     -96.54075832 Ry
     estimated scf accuracy    <       0.00024870 Ry

     iteration #  4     ecut=    75.00 Ry     beta= 0.70
     Davidson diagonalization with overlap
     ethr =  2.49E-06,  avg # of iterations =  1.0

     total cpu time spent up to now is        0.8 secs

     total energy              =     -96.54069510 Ry
     estimated scf accuracy    <       0.00012780 Ry

     iteration #  5     ecut=    75.00 Ry     beta= 0.70
     Davidson diagonalization with overlap
     ethr =  1.28E-06,  avg # of iterations =  1.8

     total cpu time spent up to now is        0.8 secs

     total energy              =     -96.54070328 Ry
     estimated scf accuracy    <       0.00000932 Ry

     iteration #  6     ecut=    75.00 Ry     beta= 0.70
     Davidson diagonalization with overlap
     ethr =  9.32E-08,  avg # of iterations =  2.0

     total cpu time spent up to now is        0.8 secs

     total energy              =     -96.54070660 Ry
     estimated scf accuracy    <       0.00000024 Ry

     iteration #  7     ecut=    75.00 Ry     beta= 0.70
     Davidson diagonalization with overlap
     ethr =  2.36E-09,  avg # of iterations =  2.0

     total cpu time spent up to now is        0.8 secs

     total energy              =     -96.54070607 Ry
     estimated scf accuracy    <       0.00000080 Ry

     iteration #  8     ecut=    75.00 Ry     beta= 0.70
     Davidson diagonalization with overlap
     ethr =  2.36E-09,  avg # of iterations =  2.0

     total cpu time spent up to now is        0.8 secs

     total energy              =     -96.54070629 Ry
     estimated scf accuracy    <       0.00000002 Ry

     iteration #  9     ecut=    75.00 Ry     beta= 0.70
     Davidson diagonalization with overlap
     ethr =  2.06E-10,  avg # of iterations =  1.0

     total cpu time spent up to now is        0.8 secs

     End of self-consistent calculation

          k = 0.0000 0.0000 0.0000 (  1989 PWs)   bands (ev):

   -49.3851 -21.2658 -21.2658 -21.2658  -2.9092  11.5041  16.6439  16.6440
    17.6267

          k =-0.1664 0.1664 0.1664 (  2007 PWs)   bands (ev):

   -49.3832 -21.2923 -21.2690 -21.2690  -2.4256   9.8855  13.3731  15.5492
    15.5492

          k =-0.3328 0.3328 0.3328 (  2006 PWs)   bands (ev):

   -49.3793 -21.3444 -21.2752 -21.2752  -1.1337   6.4924  12.1218  14.6782
    14.6782

          k = 0.4992-0.4992-0.4992 (  2006 PWs)   bands (ev):

   -49.3773 -21.3701 -21.2783 -21.2783  -0.0774   4.6117  11.8260  14.3855
    14.3855

          k = 0.0000 0.0000 0.3328 (  2009 PWs)   bands (ev):

   -49.3825 -21.2913 -21.2746 -21.2746  -2.2714   9.8470  13.8408  14.0199
    14.0199

          k =-0.1664 0.1664 0.4992 (  2008 PWs)   bands (ev):

   -49.3793 -21.3288 -21.2823 -21.2821  -1.2599   7.6232  10.8991  13.2262
    15.1173

          k = 0.6656-0.6656-0.3328 (  2018 PWs)   bands (ev):

   -49.3767 -21.3584 -21.2929 -21.2840   0.0158   5.3055   9.6871  13.2507
    14.5497

          k = 0.4992-0.4992-0.1664 (  2020 PWs)   bands (ev):

   -49.3774 -21.3505 -21.2963 -21.2783  -0.3440   5.9329   9.4130  14.1290
    14.7535

          k = 0.3328-0.3328 0.0000 (  2003 PWs)   bands (ev):

   -49.3806 -21.3172 -21.2848 -21.2708  -1.6727   8.4221  10.6268  15.1735
    15.7902

          k = 0.0000 0.0000 0.6656 (  2016 PWs)   bands (ev):

   -49.3774 -21.3377 -21.2922 -21.2922  -0.6383   7.0842  11.6837  12.2600
    12.2600

          k = 0.8320-0.8320-0.1664 (  2013 PWs)   bands (ev):

   -49.3755 -21.3493 -21.3076 -21.2954   0.3463   6.0614   8.7369  12.0906
    12.7405

          k = 0.6656-0.6656 0.0000 (  2015 PWs)   bands (ev):

   -49.3754 -21.3343 -21.3311 -21.2884   0.5267   6.5876   6.7537  12.7430
    13.4365

          k = 0.0000 0.0000-0.9984 (  2044 PWs)   bands (ev):

   -49.3748 -21.3586 -21.3010 -21.3010   0.6118   5.4977  10.9575  11.6878
    11.6878

          k = 0.9984-0.6656-0.3328 (  2012 PWs)   bands (ev):

   -49.3767 -21.3415 -21.3052 -21.2871  -0.2136   6.6887   8.6738  11.6883
    16.5964

          k = 0.8320-0.4992-0.1664 (  2012 PWs)   bands (ev):

   -49.3754 -21.3441 -21.3169 -21.2929   0.5305   5.9811   7.7838  10.8442
    16.6066

          k = 0.0000 0.3328-0.9984 (  2018 PWs)   bands (ev):

   -49.3748 -21.3442 -21.3154 -21.3028   0.7483   6.1231   8.0292   9.7235
    16.0460

     the Fermi energy is     1.2139 ev

!    total energy              =     -96.54070628 Ry
     estimated scf accuracy    <          9.0E-09 Ry
     smearing contrib. (-TS)   =       0.00000000 Ry
     internal energy E=F+TS    =     -96.54070628 Ry

     The total energy is F=E-TS. E is the sum of the following terms:
     one-electron contribution =     -78.22227686 Ry
     hartree contribution      =      40.55684937 Ry
     xc contribution           =     -15.08880924 Ry
     ewald contribution        =     -43.78646955 Ry

     convergence has been achieved in   9 iterations

     Forces acting on atoms (cartesian axes, Ry/au):

     atom    1 type  2   force =    -0.00000000    0.00000000    0.00000000
     atom    2 type  1   force =    -0.00000000    0.00000000    0.00000000

     Total force =     0.000000     Total SCF correction =     0.000000


     Computing stress (Cartesian axis) and pressure

          total   stress  (Ry/bohr**3)                   (kbar)     P=        9.56
   0.00006495   0.00000000   0.00000000            9.56        0.00        0.00
   0.00000000   0.00006495   0.00000000            0.00        9.56        0.00
   0.00000000   0.00000000   0.00006495            0.00        0.00        9.56

     Energy error            =      5.7E-05 Ry
     Gradient error          =      4.1E-32 Ry/Bohr
     Cell gradient error     =      9.6E+00 kbar

     number of scf cycles    =   2
     number of bfgs steps    =   1

     enthalpy           old  =     -96.5406492405 Ry
     enthalpy           new  =     -96.5407062799 Ry

     CASE: enthalpy          _new < enthalpy          _old


     WARNING: bfgs curvature condition failed, Theta= 0.806
     new trust radius        =       0.0048924374 bohr
     Message from routine volume:
     axis vectors are left-handed
     new conv_thr            =            1.0E-10 Ry

     new unit-cell volume =    185.33114 a.u.^3 (    27.46324 Ang^3 )
     density =      1.45093 g/cm^3

CELL_PARAMETERS (alat=  9.01936044)
   0.501722671   0.501722671   0.000000000
   0.501722671  -0.000000000   0.501722671
   0.000000000   0.501722671   0.501722671

ATOMIC_POSITIONS (crystal)
Na            0.0000000000       -0.0000000000        0.0000000000
H             0.5000000000        0.5000000000        0.5000000000



     Writing config-only to output data dir temp/NaH.save/
     NEW-OLD atomic charge density approx. for the potential
     extrapolated charge   10.05382, renormalised to   10.00000

     total cpu time spent up to now is        0.9 secs

     Self-consistent Calculation

     iteration #  1     ecut=    75.00 Ry     beta= 0.70
     Davidson diagonalization with overlap
     ethr =  1.00E-06,  avg # of iterations =  3.1

     total cpu time spent up to now is        0.9 secs

     total energy              =     -96.53917940 Ry
     estimated scf accuracy    <       0.00091638 Ry

     iteration #  2     ecut=    75.00 Ry     beta= 0.70
     Davidson diagonalization with overlap
     ethr =  9.16E-06,  avg # of iterations =  2.8

     total cpu time spent up to now is        1.0 secs

     total energy              =     -96.54079593 Ry
     estimated scf accuracy    <       0.00151040 Ry

     iteration #  3     ecut=    75.00 Ry     beta= 0.70
     Davidson diagonalization with overlap
     ethr =  9.16E-06,  avg # of iterations =  1.8

     total cpu time spent up to now is        1.0 secs

     total energy              =     -96.54083039 Ry
     estimated scf accuracy    <       0.00030046 Ry

     iteration #  4     ecut=    75.00 Ry     beta= 0.70
     Davidson diagonalization with overlap
     ethr =  3.00E-06,  avg # of iterations =  1.0

     total cpu time spent up to now is        1.0 secs

     total energy              =     -96.54073374 Ry
     estimated scf accuracy    <       0.00016860 Ry

     iteration #  5     ecut=    75.00 Ry     beta= 0.70
     Davidson diagonalization with overlap
     ethr =  1.69E-06,  avg # of iterations =  2.0

     total cpu time spent up to now is        1.0 secs

     total energy              =     -96.54075830 Ry
     estimated scf accuracy    <       0.00000331 Ry

     iteration #  6     ecut=    75.00 Ry     beta= 0.70
     Davidson diagonalization with overlap
     ethr =  3.31E-08,  avg # of iterations =  2.0

     total cpu time spent up to now is        1.0 secs

     total energy              =     -96.54075926 Ry
     estimated scf accuracy    <       0.00000214 Ry

     iteration #  7     ecut=    75.00 Ry     beta= 0.70
     Davidson diagonalization with overlap
     ethr =  2.14E-08,  avg # of iterations =  2.0

     total cpu time spent up to now is        1.0 secs

     total energy              =     -96.54076006 Ry
     estimated scf accuracy    <       0.00000033 Ry

     iteration #  8     ecut=    75.00 Ry     beta= 0.70
     Davidson diagonalization with overlap
     ethr =  3.35E-09,  avg # of iterations =  1.0

     total cpu time spent up to now is        1.0 secs

     total energy              =     -96.54075990 Ry
     estimated scf accuracy    <       0.00000025 Ry

     iteration #  9     ecut=    75.00 Ry     beta= 0.70
     Davidson diagonalization with overlap
     ethr =  2.50E-09,  avg # of iterations =  2.0

     total cpu time spent up to now is        1.0 secs

     total energy              =     -96.54075995 Ry
     estimated scf accuracy    <          2.4E-10 Ry

     iteration # 10     ecut=    75.00 Ry     beta= 0.70
     Davidson diagonalization with overlap
     ethr =  2.43E-12,  avg # of iterations =  2.2

     total cpu time spent up to now is        1.0 secs

     total energy              =     -96.54075995 Ry
     estimated scf accuracy    <          5.3E-10 Ry

     iteration # 11     ecut=    75.00 Ry     beta= 0.70
     Davidson diagonalization with overlap
     ethr =  2.43E-12,  avg # of iterations =  1.9

     total cpu time spent up to now is        1.1 secs

     total energy              =     -96.54075995 Ry
     estimated scf accuracy    <          1.4E-10 Ry

     iteration # 12     ecut=    75.00 Ry     beta= 0.70
     Davidson diagonalization with overlap
     ethr =  1.44E-12,  avg # of iterations =  1.4

     total cpu time spent up to now is        1.1 secs

     End of self-consistent calculation

          k = 0.0000 0.0000 0.0000 (  1989 PWs)   bands (ev):

   -49.4200 -21.3014 -21.3014 -21.3014  -2.9212  11.4281  16.5759  16.5759
    16.5759

          k =-0.1661 0.1661 0.1661 (  2007 PWs)   bands (ev):

   -49.4181 -21.3273 -21.3045 -21.3045  -2.4399   9.8220  13.3084  15.4805
    15.4805

          k =-0.3322 0.3322 0.3322 (  2006 PWs)   bands (ev):

   -49.4143 -21.3785 -21.3106 -21.3106  -1.1536   6.4474  12.0562  14.6144
    14.6144

          k = 0.4983-0.4983-0.4983 (  2006 PWs)   bands (ev):

   -49.4125 -21.4037 -21.3136 -21.3136  -0.1022   4.5752  11.7604  14.3242
    14.3242

          k = 0.0000 0.0000 0.3322 (  2009 PWs)   bands (ev):

   -49.4175 -21.3264 -21.3100 -21.3100  -2.2863   9.7830  13.7826  13.9537
    13.9537

          k =-0.1661 0.1661 0.4983 (  2008 PWs)   bands (ev):

   -49.4144 -21.3632 -21.3176 -21.3174  -1.2791   7.5728  10.8446  13.1621
    15.0448

          k = 0.6644-0.6644-0.3322 (  2018 PWs)   bands (ev):

   -49.4118 -21.3923 -21.3280 -21.3192  -0.0090   5.2663   9.6346  13.1878
    14.4733

          k = 0.4983-0.4983-0.1661 (  2020 PWs)   bands (ev):

   -49.4125 -21.3845 -21.3314 -21.3137  -0.3672   5.8906   9.3617  14.0652
    14.6756

          k = 0.3322-0.3322 0.0000 (  2003 PWs)   bands (ev):

   -49.4156 -21.3519 -21.3200 -21.3063  -1.6901   8.3662  10.5748  15.0966
    15.7230

          k = 0.0000 0.0000 0.6644 (  2016 PWs)   bands (ev):

   -49.4125 -21.3719 -21.3273 -21.3273  -0.6597   7.0376  11.6334  12.1973
    12.1973

          k = 0.8305-0.8305-0.1661 (  2013 PWs)   bands (ev):

   -49.4106 -21.3834 -21.3424 -21.3304   0.3208   6.0204   8.6884  12.0285
    12.6706

          k = 0.6644-0.6644 0.0000 (  2015 PWs)   bands (ev):

   -49.4106 -21.3686 -21.3655 -21.3236   0.5001   6.5435   6.7124  12.6804
    13.3620

          k = 0.0000 0.0000-0.9966 (  2044 PWs)   bands (ev):

   -49.4100 -21.3925 -21.3360 -21.3360   0.5856   5.4594  10.9099  11.6261
    11.6261

          k = 0.9966-0.6644-0.3322 (  2012 PWs)   bands (ev):

   -49.4119 -21.3757 -21.3400 -21.3223  -0.2370   6.6432   8.6274  11.6248
    16.5092

          k = 0.8305-0.4983-0.1661 (  2012 PWs)   bands (ev):

   -49.4106 -21.3782 -21.3516 -21.3280   0.5039   5.9404   7.7388  10.7824
    16.5222

          k = 0.0000 0.3322-0.9966 (  2018 PWs)   bands (ev):

   -49.4100 -21.3783 -21.3501 -21.3377   0.7211   6.0833   7.9847   9.6621
    15.9757

     the Fermi energy is     2.5219 ev

!    total energy              =     -96.54075995 Ry
     estimated scf accuracy    <          1.6E-11 Ry
     smearing contrib. (-TS)   =       0.00000000 Ry
     internal energy E=F+TS    =     -96.54075995 Ry

     The total energy is F=E-TS. E is the sum of the following terms:
     one-electron contribution =     -78.35608132 Ry
     hartree contribution      =      40.61022298 Ry
     xc contribution           =     -15.08718230 Ry
     ewald contribution        =     -43.70771931 Ry

     convergence has been achieved in  12 iterations

     Forces acting on atoms (cartesian axes, Ry/au):

     atom    1 type  2   force =     0.00000000   -0.00000000   -0.00000000
     atom    2 type  1   force =    -0.00000000    0.00000000    0.00000000

     Total force =     0.000000     Total SCF correction =     0.000000


     Computing stress (Cartesian axis) and pressure

          total   stress  (Ry/bohr**3)                   (kbar)     P=        7.24
   0.00004920   0.00000000   0.00000000            7.24        0.00        0.00
   0.00000000   0.00004920   0.00000000            0.00        7.24        0.00
   0.00000000   0.00000000   0.00004920            0.00        0.00        7.24

     Energy error            =      5.4E-05 Ry
     Gradient error          =      1.6E-32 Ry/Bohr
     Cell gradient error     =      7.2E+00 kbar

     number of scf cycles    =   3
     number of bfgs steps    =   2

     enthalpy           old  =     -96.5407062799 Ry
     enthalpy           new  =     -96.5407599480 Ry

     CASE: enthalpy          _new < enthalpy          _old

     new trust radius        =       0.0073452644 bohr
     Message from routine volume:
     axis vectors are left-handed
     new conv_thr            =            1.0E-10 Ry

     new unit-cell volume =    186.83513 a.u.^3 (    27.68611 Ang^3 )
     density =      1.43925 g/cm^3

CELL_PARAMETERS (alat=  9.01936044)
   0.503076198   0.503076198  -0.000000000
   0.503076198   0.000000000   0.503076198
  -0.000000000   0.503076198   0.503076198

ATOMIC_POSITIONS (crystal)
Na           -0.0000000000        0.0000000000       -0.0000000000
H             0.5000000000        0.5000000000        0.5000000000



     Writing config-only to output data dir temp/NaH.save/
     NEW-OLD atomic charge density approx. for the potential
     extrapolated charge   10.08045, renormalised to   10.00000

     total cpu time spent up to now is        1.2 secs

     Self-consistent Calculation

     iteration #  1     ecut=    75.00 Ry     beta= 0.70
     Davidson diagonalization with overlap
     ethr =  1.00E-06,  avg # of iterations =  3.0

     total cpu time spent up to now is        1.2 secs

     total energy              =     -96.53726910 Ry
     estimated scf accuracy    <       0.00205340 Ry

     iteration #  2     ecut=    75.00 Ry     beta= 0.70
     Davidson diagonalization with overlap
     ethr =  2.05E-05,  avg # of iterations =  2.8

     total cpu time spent up to now is        1.2 secs

     total energy              =     -96.54090414 Ry
     estimated scf accuracy    <       0.00341425 Ry

     iteration #  3     ecut=    75.00 Ry     beta= 0.70
     Davidson diagonalization with overlap
     ethr =  2.05E-05,  avg # of iterations =  1.8

     total cpu time spent up to now is        1.2 secs

     total energy              =     -96.54095961 Ry
     estimated scf accuracy    <       0.00068010 Ry

     iteration #  4     ecut=    75.00 Ry     beta= 0.70
     Davidson diagonalization with overlap
     ethr =  6.80E-06,  avg # of iterations =  1.0

     total cpu time spent up to now is        1.2 secs

     total energy              =     -96.54079674 Ry
     estimated scf accuracy    <       0.00033873 Ry

     iteration #  5     ecut=    75.00 Ry     beta= 0.70
     Davidson diagonalization with overlap
     ethr =  3.39E-06,  avg # of iterations =  1.8

     total cpu time spent up to now is        1.2 secs

     total energy              =     -96.54081386 Ry
     estimated scf accuracy    <       0.00002819 Ry

     iteration #  6     ecut=    75.00 Ry     beta= 0.70
     Davidson diagonalization with overlap
     ethr =  2.82E-07,  avg # of iterations =  2.0

     total cpu time spent up to now is        1.2 secs

     total energy              =     -96.54082382 Ry
     estimated scf accuracy    <       0.00000081 Ry

     iteration #  7     ecut=    75.00 Ry     beta= 0.70
     Davidson diagonalization with overlap
     ethr =  8.09E-09,  avg # of iterations =  2.0

     total cpu time spent up to now is        1.3 secs

     total energy              =     -96.54082223 Ry
     estimated scf accuracy    <       0.00000228 Ry

     iteration #  8     ecut=    75.00 Ry     beta= 0.70
     Davidson diagonalization with overlap
     ethr =  8.09E-09,  avg # of iterations =  2.0

     total cpu time spent up to now is        1.3 secs

     total energy              =     -96.54082293 Ry
     estimated scf accuracy    <       0.00000013 Ry

     iteration #  9     ecut=    75.00 Ry     beta= 0.70
     Davidson diagonalization with overlap
     ethr =  1.29E-09,  avg # of iterations =  1.0

     total cpu time spent up to now is        1.3 secs

     total energy              =     -96.54082289 Ry
     estimated scf accuracy    <       0.00000005 Ry

     iteration # 10     ecut=    75.00 Ry     beta= 0.70
     Davidson diagonalization with overlap
     ethr =  5.45E-10,  avg # of iterations =  2.0

     total cpu time spent up to now is        1.3 secs

     total energy              =     -96.54082290 Ry
     estimated scf accuracy    <          3.4E-09 Ry

     iteration # 11     ecut=    75.00 Ry     beta= 0.70
     Davidson diagonalization with overlap
     ethr =  3.40E-11,  avg # of iterations =  1.0

     total cpu time spent up to now is        1.3 secs

     total energy              =     -96.54082290 Ry
     estimated scf accuracy    <          6.9E-10 Ry

     iteration # 12     ecut=    75.00 Ry     beta= 0.70
     Davidson diagonalization with overlap
     ethr =  6.92E-12,  avg # of iterations =  1.9

     total cpu time spent up to now is        1.3 secs

     End of self-consistent calculation

          k = 0.0000 0.0000 0.0000 (  1989 PWs)   bands (ev):

   -49.4734 -21.3557 -21.3557 -21.3557  -2.9391  11.3149  16.4745  16.4745
    16.4745

          k =-0.1656 0.1656 0.1656 (  2007 PWs)   bands (ev):

   -49.4716 -21.3809 -21.3587 -21.3587  -2.4609   9.7275  13.2121  15.3782
    15.3782

          k =-0.3313 0.3313 0.3313 (  2006 PWs)   bands (ev):

   -49.4680 -21.4307 -21.3646 -21.3646  -1.1830   6.3805  11.9584  14.5193
    14.5193

          k = 0.4969-0.4969-0.4969 (  2006 PWs)   bands (ev):

   -49.4662 -21.4552 -21.3676 -21.3676  -0.1390   4.5209  11.6626  14.2330
    14.2330

          k = 0.0000 0.0000 0.3313 (  2009 PWs)   bands (ev):

   -49.4710 -21.3800 -21.3641 -21.3641  -2.3082   9.6876  13.6960  13.8551
    13.8551

          k =-0.1656 0.1656 0.4969 (  2008 PWs)   bands (ev):

   -49.4680 -21.4158 -21.3714 -21.3713  -1.3074   7.4976  10.7634  13.0668
    14.9367

          k = 0.6626-0.6626-0.3313 (  2018 PWs)   bands (ev):

   -49.4656 -21.4441 -21.3816 -21.3731  -0.0457   5.2080   9.5564  13.0941
    14.3595

          k = 0.4969-0.4969-0.1656 (  2020 PWs)   bands (ev):

   -49.4662 -21.4366 -21.3849 -21.3677  -0.4016   5.8278   9.2854  13.9702
    14.5596

          k = 0.3313-0.3313 0.0000 (  2003 PWs)   bands (ev):

   -49.4692 -21.4048 -21.3738 -21.3605  -1.7160   8.2829  10.4974  14.9821
    15.6229

          k = 0.0000 0.0000 0.6626 (  2016 PWs)   bands (ev):

   -49.4662 -21.4243 -21.3809 -21.3809  -0.6914   6.9683  11.5585  12.1040
    12.1040

          k = 0.8282-0.8282-0.1656 (  2013 PWs)   bands (ev):

   -49.4644 -21.4355 -21.3956 -21.3840   0.2831   5.9596   8.6161  11.9360
    12.5665

          k = 0.6626-0.6626 0.0000 (  2015 PWs)   bands (ev):

   -49.4644 -21.4211 -21.4181 -21.3773   0.4607   6.4778   6.6509  12.5870
    13.2511

          k = 0.0000 0.0000-0.9939 (  2044 PWs)   bands (ev):

   -49.4638 -21.4444 -21.3894 -21.3894   0.5468   5.4024  10.8389  11.5342
    11.5342

          k = 0.9939-0.6626-0.3313 (  2012 PWs)   bands (ev):

   -49.4656 -21.4280 -21.3933 -21.3760  -0.2716   6.5755   8.5585  11.5302
    16.3793

          k = 0.8282-0.4969-0.1656 (  2012 PWs)   bands (ev):

   -49.4644 -21.4305 -21.4046 -21.3816   0.4644   5.8798   7.6719  10.6903
    16.3965

          k = 0.0000 0.3313-0.9939 (  2018 PWs)   bands (ev):

   -49.4638 -21.4306 -21.4031 -21.3910   0.6808   6.0242   7.9185   9.5705
    15.8710

     the Fermi energy is     2.4311 ev

!    total energy              =     -96.54082290 Ry
     estimated scf accuracy    <          7.8E-11 Ry
     smearing contrib. (-TS)   =       0.00000000 Ry
     internal energy E=F+TS    =     -96.54082290 Ry

     The total energy is F=E-TS. E is the sum of the following terms:
     one-electron contribution =     -78.55646282 Ry
     hartree contribution      =      40.69064091 Ry
     xc contribution           =     -15.08487736 Ry
     ewald contribution        =     -43.59012363 Ry

     convergence has been achieved in  12 iterations

     Forces acting on atoms (cartesian axes, Ry/au):

     atom    1 type  2   force =    -0.00000000    0.00000000   -0.00000000
     atom    2 type  1   force =     0.00000000    0.00000000   -0.00000000

     Total force =     0.000000     Total SCF correction =     0.000000


     Computing stress (Cartesian axis) and pressure

          total   stress  (Ry/bohr**3)                   (kbar)     P=        5.04
   0.00003428  -0.00000000  -0.00000000            5.04       -0.00       -0.00
  -0.00000000   0.00003428  -0.00000000           -0.00        5.04       -0.00
  -0.00000000  -0.00000000   0.00003428           -0.00       -0.00        5.04

     Energy error            =      6.3E-05 Ry
     Gradient error          =      2.5E-32 Ry/Bohr
     Cell gradient error     =      5.0E+00 kbar

     number of scf cycles    =   4
     number of bfgs steps    =   3

     enthalpy           old  =     -96.5407599480 Ry
     enthalpy           new  =     -96.5408229037 Ry

     CASE: enthalpy          _new < enthalpy          _old

     new trust radius        =       0.0110327484 bohr
     Message from routine volume:
     axis vectors are left-handed
     new conv_thr            =            1.0E-10 Ry

     new unit-cell volume =    189.10633 a.u.^3 (    28.02267 Ang^3 )
     density =      1.42196 g/cm^3

CELL_PARAMETERS (alat=  9.01936044)
   0.505106489   0.505106489  -0.000000000
   0.505106489  -0.000000000   0.505106489
  -0.000000000   0.505106489   0.505106489

ATOMIC_POSITIONS (crystal)
Na           -0.0000000000        0.0000000000       -0.0000000000
H             0.5000000000        0.5000000000        0.5000000000



     Writing config-only to output data dir temp/NaH.save/
     NEW-OLD atomic charge density approx. for the potential
     extrapolated charge   10.12003, renormalised to   10.00000

     total cpu time spent up to now is        1.4 secs

     Self-consistent Calculation

     iteration #  1     ecut=    75.00 Ry     beta= 0.70
     Davidson diagonalization with overlap
     ethr =  1.00E-06,  avg # of iterations =  3.0

     total cpu time spent up to now is        1.5 secs

     total energy              =     -96.53286702 Ry
     estimated scf accuracy    <       0.00462371 Ry

     iteration #  2     ecut=    75.00 Ry     beta= 0.70
     Davidson diagonalization with overlap
     ethr =  4.62E-05,  avg # of iterations =  2.8

     total cpu time spent up to now is        1.5 secs

     total energy              =     -96.54107361 Ry
     estimated scf accuracy    <       0.00769146 Ry

     iteration #  3     ecut=    75.00 Ry     beta= 0.70
     Davidson diagonalization with overlap
     ethr =  4.62E-05,  avg # of iterations =  1.8

     total cpu time spent up to now is        1.5 secs

     total energy              =     -96.54117605 Ry
     estimated scf accuracy    <       0.00154488 Ry

     iteration #  4     ecut=    75.00 Ry     beta= 0.70
     Davidson diagonalization with overlap
     ethr =  1.54E-05,  avg # of iterations =  1.0

     total cpu time spent up to now is        1.5 secs

     total energy              =     -96.54082634 Ry
     estimated scf accuracy    <       0.00074406 Ry

     iteration #  5     ecut=    75.00 Ry     beta= 0.70
     Davidson diagonalization with overlap
     ethr =  7.44E-06,  avg # of iterations =  1.8

     total cpu time spent up to now is        1.6 secs

     total energy              =     -96.54085733 Ry
     estimated scf accuracy    <       0.00006723 Ry

     iteration #  6     ecut=    75.00 Ry     beta= 0.70
     Davidson diagonalization with overlap
     ethr =  6.72E-07,  avg # of iterations =  2.0

     total cpu time spent up to now is        1.6 secs

     total energy              =     -96.54088097 Ry
     estimated scf accuracy    <       0.00000202 Ry

     iteration #  7     ecut=    75.00 Ry     beta= 0.70
     Davidson diagonalization with overlap
     ethr =  2.02E-08,  avg # of iterations =  2.0

     total cpu time spent up to now is        1.6 secs

     total energy              =     -96.54087719 Ry
     estimated scf accuracy    <       0.00000541 Ry

     iteration #  8     ecut=    75.00 Ry     beta= 0.70
     Davidson diagonalization with overlap
     ethr =  2.02E-08,  avg # of iterations =  2.0

     total cpu time spent up to now is        1.6 secs

     total energy              =     -96.54087886 Ry
     estimated scf accuracy    <       0.00000030 Ry

     iteration #  9     ecut=    75.00 Ry     beta= 0.70
     Davidson diagonalization with overlap
     ethr =  3.04E-09,  avg # of iterations =  1.0

     total cpu time spent up to now is        1.6 secs

     total energy              =     -96.54087875 Ry
     estimated scf accuracy    <       0.00000016 Ry

     iteration # 10     ecut=    75.00 Ry     beta= 0.70
     Davidson diagonalization with overlap
     ethr =  1.62E-09,  avg # of iterations =  2.0

     total cpu time spent up to now is        1.6 secs

     total energy              =     -96.54087879 Ry
     estimated scf accuracy    <          3.6E-09 Ry

     iteration # 11     ecut=    75.00 Ry     beta= 0.70
     Davidson diagonalization with overlap
     ethr =  3.57E-11,  avg # of iterations =  1.0

     total cpu time spent up to now is        1.6 secs

     total energy              =     -96.54087879 Ry
     estimated scf accuracy    <          2.0E-09 Ry

     iteration # 12     ecut=    75.00 Ry     beta= 0.70
     Davidson diagonalization with overlap
     ethr =  2.01E-11,  avg # of iterations =  1.0

     total cpu time spent up to now is        1.7 secs

     total energy              =     -96.54087879 Ry
     estimated scf accuracy    <          4.7E-10 Ry

     iteration # 13     ecut=    75.00 Ry     beta= 0.70
     Davidson diagonalization with overlap
     ethr =  4.71E-12,  avg # of iterations =  1.9

     total cpu time spent up to now is        1.7 secs

     End of self-consistent calculation

          k = 0.0000 0.0000 0.0000 (  1989 PWs)   bands (ev):

   -49.5531 -21.4366 -21.4366 -21.4366  -2.9652  11.1473  16.3240  16.3240
    16.3240

          k =-0.1650 0.1650 0.1650 (  2007 PWs)   bands (ev):

   -49.5514 -21.4608 -21.4395 -21.4395  -2.4917   9.5874  13.0693  15.2264
    15.2264

          k =-0.3300 0.3300 0.3300 (  2006 PWs)   bands (ev):

   -49.5479 -21.5085 -21.4452 -21.4452  -1.2263   6.2813  11.8136  14.3782
    14.3782

          k = 0.4949-0.4949-0.4949 (  2006 PWs)   bands (ev):

   -49.5462 -21.5320 -21.4481 -21.4481  -0.1933   4.4404  11.5178  14.0976
    14.0976

          k = 0.0000 0.0000 0.3300 (  2009 PWs)   bands (ev):

   -49.5508 -21.4599 -21.4446 -21.4446  -2.3404   9.5463  13.5674  13.7089
    13.7089

          k =-0.1650 0.1650 0.4949 (  2008 PWs)   bands (ev):

   -49.5479 -21.4943 -21.4517 -21.4516  -1.3490   7.3863  10.6431  12.9254
    14.7762

          k = 0.6599-0.6599-0.3300 (  2018 PWs)   bands (ev):

   -49.5456 -21.5214 -21.4615 -21.4533  -0.0999   5.1217   9.4404  12.9551
    14.1907

          k = 0.4949-0.4949-0.1650 (  2020 PWs)   bands (ev):

   -49.5462 -21.5142 -21.4646 -21.4481  -0.4522   5.7347   9.1724  13.8293
    14.3876

          k = 0.3300-0.3300 0.0000 (  2003 PWs)   bands (ev):

   -49.5491 -21.4836 -21.4540 -21.4412  -1.7539   8.1596  10.3825  14.8124
    15.4744

          k = 0.0000 0.0000 0.6599 (  2016 PWs)   bands (ev):

   -49.5462 -21.5024 -21.4609 -21.4609  -0.7381   6.8656  11.4473  11.9656
    11.9656

          k = 0.8249-0.8249-0.1650 (  2013 PWs)   bands (ev):

   -49.5445 -21.5132 -21.4750 -21.4638   0.2275   5.8695   8.5089  11.7989
    12.4119

          k = 0.6599-0.6599 0.0000 (  2015 PWs)   bands (ev):

   -49.5445 -21.4994 -21.4966 -21.4574   0.4025   6.3805   6.5599  12.4486
    13.0866

          k = 0.0000 0.0000-0.9899 (  2044 PWs)   bands (ev):

   -49.5440 -21.5218 -21.4690 -21.4690   0.4894   5.3183  10.7336  11.3981
    11.3981

          k = 0.9899-0.6599-0.3300 (  2012 PWs)   bands (ev):

   -49.5456 -21.5059 -21.4727 -21.4561  -0.3228   6.4751   8.4563  11.3900
    16.1868

          k = 0.8249-0.4949-0.1650 (  2012 PWs)   bands (ev):

   -49.5445 -21.5083 -21.4835 -21.4614   0.4061   5.7900   7.5727  10.5538
    16.2101

          k = 0.0000 0.3300-0.9899 (  2018 PWs)   bands (ev):

   -49.5439 -21.5085 -21.4821 -21.4705   0.6213   5.9367   7.8203   9.4349
    15.7158

     the Fermi energy is     2.2961 ev

!    total energy              =     -96.54087879 Ry
     estimated scf accuracy    <          4.9E-11 Ry
     smearing contrib. (-TS)   =       0.00000000 Ry
     internal energy E=F+TS    =     -96.54087879 Ry

     The total energy is F=E-TS. E is the sum of the following terms:
     one-electron contribution =     -78.85520606 Ry
     hartree contribution      =      40.81072165 Ry
     xc contribution           =     -15.08148256 Ry
     ewald contribution        =     -43.41491183 Ry

     convergence has been achieved in  13 iterations

     Forces acting on atoms (cartesian axes, Ry/au):

     atom    1 type  2   force =    -0.00000000    0.00000000    0.00000000
     atom    2 type  1   force =     0.00000000   -0.00000000   -0.00000000

     Total force =     0.000000     Total SCF correction =     0.000000


     Computing stress (Cartesian axis) and pressure

          total   stress  (Ry/bohr**3)                   (kbar)     P=        2.08
   0.00001412  -0.00000000   0.00000000            2.08       -0.00        0.00
  -0.00000000   0.00001412   0.00000000           -0.00        2.08        0.00
   0.00000000   0.00000000   0.00001412            0.00        0.00        2.08

     Energy error            =      5.6E-05 Ry
     Gradient error          =      5.5E-31 Ry/Bohr
     Cell gradient error     =      2.1E+00 kbar

     number of scf cycles    =   5
     number of bfgs steps    =   4

     enthalpy           old  =     -96.5408229037 Ry
     enthalpy           new  =     -96.5408787901 Ry

     CASE: enthalpy          _new < enthalpy          _old

     new trust radius        =       0.0078500874 bohr
     Message from routine volume:
     axis vectors are left-handed
     new conv_thr            =            1.0E-10 Ry

     new unit-cell volume =    190.73022 a.u.^3 (    28.26330 Ang^3 )
     density =      1.40985 g/cm^3

CELL_PARAMETERS (alat=  9.01936044)
   0.506548187   0.506548187  -0.000000000
   0.506548187  -0.000000000   0.506548187
  -0.000000000   0.506548187   0.506548187

ATOMIC_POSITIONS (crystal)
Na           -0.0000000000       -0.0000000000        0.0000000000
H             0.5000000000        0.5000000000        0.5000000000



     Writing config-only to output data dir temp/NaH.save/
     NEW-OLD atomic charge density approx. for the potential
     extrapolated charge   10.08509, renormalised to   10.00000

     total cpu time spent up to now is        1.8 secs

     Self-consistent Calculation

     iteration #  1     ecut=    75.00 Ry     beta= 0.70
     Davidson diagonalization with overlap
     ethr =  1.00E-06,  avg # of iterations =  3.0

     total cpu time spent up to now is        1.8 secs

     total energy              =     -96.53690356 Ry
     estimated scf accuracy    <       0.00230337 Ry

     iteration #  2     ecut=    75.00 Ry     beta= 0.70
     Davidson diagonalization with overlap
     ethr =  2.30E-05,  avg # of iterations =  2.8

     total cpu time spent up to now is        1.8 secs

     total energy              =     -96.54098330 Ry
     estimated scf accuracy    <       0.00383038 Ry

     iteration #  3     ecut=    75.00 Ry     beta= 0.70
     Davidson diagonalization with overlap
     ethr =  2.30E-05,  avg # of iterations =  1.8

     total cpu time spent up to now is        1.8 secs

     total energy              =     -96.54104506 Ry
     estimated scf accuracy    <       0.00076423 Ry

     iteration #  4     ecut=    75.00 Ry     beta= 0.70
     Davidson diagonalization with overlap
     ethr =  7.64E-06,  avg # of iterations =  1.0

     total cpu time spent up to now is        1.8 secs

     total energy              =     -96.54086076 Ry
     estimated scf accuracy    <       0.00038119 Ry

     iteration #  5     ecut=    75.00 Ry     beta= 0.70
     Davidson diagonalization with overlap
     ethr =  3.81E-06,  avg # of iterations =  1.8

     total cpu time spent up to now is        1.8 secs

     total energy              =     -96.54088126 Ry
     estimated scf accuracy    <       0.00003081 Ry

     iteration #  6     ecut=    75.00 Ry     beta= 0.70
     Davidson diagonalization with overlap
     ethr =  3.08E-07,  avg # of iterations =  2.0

     total cpu time spent up to now is        1.9 secs

     total energy              =     -96.54089209 Ry
     estimated scf accuracy    <       0.00000082 Ry

     iteration #  7     ecut=    75.00 Ry     beta= 0.70
     Davidson diagonalization with overlap
     ethr =  8.19E-09,  avg # of iterations =  2.0

     total cpu time spent up to now is        1.9 secs

     total energy              =     -96.54089041 Ry
     estimated scf accuracy    <       0.00000241 Ry

     iteration #  8     ecut=    75.00 Ry     beta= 0.70
     Davidson diagonalization with overlap
     ethr =  8.19E-09,  avg # of iterations =  2.0

     total cpu time spent up to now is        1.9 secs

     total energy              =     -96.54089115 Ry
     estimated scf accuracy    <       0.00000014 Ry

     iteration #  9     ecut=    75.00 Ry     beta= 0.70
     Davidson diagonalization with overlap
     ethr =  1.41E-09,  avg # of iterations =  1.0

     total cpu time spent up to now is        1.9 secs

     total energy              =     -96.54089111 Ry
     estimated scf accuracy    <       0.00000006 Ry

     iteration # 10     ecut=    75.00 Ry     beta= 0.70
     Davidson diagonalization with overlap
     ethr =  6.09E-10,  avg # of iterations =  2.0

     total cpu time spent up to now is        1.9 secs

     total energy              =     -96.54089113 Ry
     estimated scf accuracy    <          3.9E-09 Ry

     iteration # 11     ecut=    75.00 Ry     beta= 0.70
     Davidson diagonalization with overlap
     ethr =  3.92E-11,  avg # of iterations =  1.0

     total cpu time spent up to now is        1.9 secs

     total energy              =     -96.54089113 Ry
     estimated scf accuracy    <          9.2E-10 Ry

     iteration # 12     ecut=    75.00 Ry     beta= 0.70
     Davidson diagonalization with overlap
     ethr =  9.17E-12,  avg # of iterations =  1.0

     total cpu time spent up to now is        1.9 secs

     total energy              =     -96.54089113 Ry
     estimated scf accuracy    <          1.6E-10 Ry

     iteration # 13     ecut=    75.00 Ry     beta= 0.70
     Davidson diagonalization with overlap
     ethr =  1.63E-12,  avg # of iterations =  1.1

     total cpu time spent up to now is        1.9 secs

     End of self-consistent calculation

          k = 0.0000 0.0000 0.0000 (  1989 PWs)   bands (ev):

   -49.6091 -21.4934 -21.4934 -21.4934  -2.9833  11.0298  16.2183  16.2183
    16.2183

          k =-0.1645 0.1645 0.1645 (  2007 PWs)   bands (ev):

   -49.6074 -21.5169 -21.4962 -21.4962  -2.5131   9.4890  12.9692  15.1198
    15.1198

          k =-0.3290 0.3290 0.3290 (  2006 PWs)   bands (ev):

   -49.6041 -21.5633 -21.5018 -21.5018  -1.2565   6.2118  11.7120  14.2791
    14.2791

          k = 0.4935-0.4935-0.4935 (  2006 PWs)   bands (ev):

   -49.6025 -21.5861 -21.5046 -21.5046  -0.2311   4.3840  11.4162  14.0025
    14.0025

          k = 0.0000 0.0000 0.3290 (  2009 PWs)   bands (ev):

   -49.6069 -21.5160 -21.5013 -21.5013  -2.3628   9.4472  13.4771  13.6062
    13.6062

          k =-0.1645 0.1645 0.4935 (  2008 PWs)   bands (ev):

   -49.6041 -21.5494 -21.5082 -21.5080  -1.3780   7.3081  10.5586  12.8262
    14.6634

          k = 0.6580-0.6580-0.3290 (  2018 PWs)   bands (ev):

   -49.6019 -21.5758 -21.5177 -21.5097  -0.1377   5.0612   9.3591  12.8576
    14.0723

          k = 0.4935-0.4935-0.1645 (  2020 PWs)   bands (ev):

   -49.6025 -21.5688 -21.5207 -21.5047  -0.4875   5.6694   9.0931  13.7304
    14.2670

          k = 0.3290-0.3290 0.0000 (  2003 PWs)   bands (ev):

   -49.6052 -21.5391 -21.5104 -21.4979  -1.7803   8.0730  10.3019  14.6933
    15.3701

          k = 0.0000 0.0000 0.6580 (  2016 PWs)   bands (ev):

   -49.6025 -21.5574 -21.5171 -21.5171  -0.7707   6.7937  11.3692  11.8686
    11.8686

          k = 0.8226-0.8226-0.1645 (  2013 PWs)   bands (ev):

   -49.6009 -21.5679 -21.5308 -21.5199   0.1886   5.8064   8.4337  11.7027
    12.3034

          k = 0.6580-0.6580 0.0000 (  2015 PWs)   bands (ev):

   -49.6009 -21.5544 -21.5517 -21.5137   0.3618   6.3123   6.4962  12.3515
    12.9712

          k = 0.0000 0.0000-0.9871 (  2044 PWs)   bands (ev):

   -49.6003 -21.5762 -21.5250 -21.5250   0.4492   5.2594  10.6596  11.3027
    11.3027

          k = 0.9871-0.6580-0.3290 (  2012 PWs)   bands (ev):

   -49.6020 -21.5608 -21.5286 -21.5125  -0.3585   6.4047   8.3846  11.2917
    16.0518

          k = 0.8226-0.4935-0.1645 (  2012 PWs)   bands (ev):

   -49.6009 -21.5632 -21.5391 -21.5176   0.3654   5.7271   7.5032  10.4580
    16.0792

          k = 0.0000 0.3290-0.9871 (  2018 PWs)   bands (ev):

   -49.6003 -21.5633 -21.5377 -21.5264   0.5797   5.8755   7.7515   9.3397
    15.6068

     the Fermi energy is     2.2012 ev

!    total energy              =     -96.54089113 Ry
     estimated scf accuracy    <          4.9E-11 Ry
     smearing contrib. (-TS)   =       0.00000000 Ry
     internal energy E=F+TS    =     -96.54089113 Ry

     The total energy is F=E-TS. E is the sum of the following terms:
     one-electron contribution =     -79.06594853 Ry
     hartree contribution      =      40.89550591 Ry
     xc contribution           =     -15.07910086 Ry
     ewald contribution        =     -43.29134765 Ry

     convergence has been achieved in  13 iterations

     Forces acting on atoms (cartesian axes, Ry/au):

     atom    1 type  2   force =    -0.00000000    0.00000000    0.00000000
     atom    2 type  1   force =     0.00000000   -0.00000000   -0.00000000

     Total force =     0.000000     Total SCF correction =     0.000000


     Computing stress (Cartesian axis) and pressure

          total   stress  (Ry/bohr**3)                   (kbar)     P=        0.05
   0.00000031   0.00000000   0.00000000            0.05        0.00        0.00
   0.00000000   0.00000031   0.00000000            0.00        0.05        0.00
   0.00000000   0.00000000   0.00000031            0.00        0.00        0.05

     Energy error            =      1.2E-05 Ry
     Gradient error          =      6.5E-31 Ry/Bohr
     Cell gradient error     =      4.6E-02 kbar
     Message from routine volume:
     axis vectors are left-handed

     bfgs converged in   6 scf cycles and   5 bfgs steps
     (criteria: energy <  1.0E-04 Ry, force <  1.0E-03 Ry/Bohr, cell <  5.0E-01 kbar)

     End of BFGS Geometry Optimization

     Final enthalpy           =     -96.5408911273 Ry

     File temp/NaH.bfgs deleted, as requested
Begin final coordinates
     new unit-cell volume =    190.73022 a.u.^3 (    28.26330 Ang^3 )
     density =      1.40985 g/cm^3

CELL_PARAMETERS (alat=  9.01936044)
   0.506548187   0.506548187  -0.000000000
   0.506548187  -0.000000000   0.506548187
  -0.000000000   0.506548187   0.506548187

ATOMIC_POSITIONS (crystal)
Na           -0.0000000000       -0.0000000000        0.0000000000
H             0.5000000000        0.5000000000        0.5000000000
End final coordinates



     Writing config-only to output data dir temp/NaH.save/

     Final scf calculation at the relaxed structure.
     The G-vectors are recalculated for the final unit cell
     Results may differ from those at the preceding step.
 
     Parallelization info
     --------------------
     sticks:   dense  smooth     PW     G-vecs:    dense   smooth      PW
     Min          59      47     14                 1299      923     151
     Max          60      48     15                 1303      927     155
     Sum        1069     859    253                23409    16625    2733
 
     Using Slab Decomposition
 


     bravais-lattice index     =            0
     lattice parameter (alat)  =       9.0194  a.u.
     unit-cell volume          =     190.7302 (a.u.)^3
     number of atoms/cell      =            2
     number of atomic types    =            2
     number of electrons       =        10.00
     number of Kohn-Sham states=            9
     kinetic-energy cutoff     =      75.0000  Ry
     charge density cutoff     =     375.0000  Ry
     scf convergence threshold =      1.0E-10
     mixing beta               =       0.7000
     number of iterations used =            8  plain     mixing
     press convergence thresh. =      5.0E-01
     Exchange-correlation= PBE
                           (   1   4   3   4   0   0   0)

     celldm(1)=   9.019360  celldm(2)=   0.000000  celldm(3)=   0.000000
     celldm(4)=   0.000000  celldm(5)=   0.000000  celldm(6)=   0.000000

     crystal axes: (cart. coord. in units of alat)
               a(1) = (   0.506548   0.506548  -0.000000 )  
               a(2) = (   0.506548  -0.000000   0.506548 )  
               a(3) = (  -0.000000   0.506548   0.506548 )  

     reciprocal axes: (cart. coord. in units 2 pi/alat)
               b(1) = (  0.987073  0.987073 -0.987073 )  
               b(2) = (  0.987073 -0.987073  0.987073 )  
               b(3) = ( -0.987073  0.987073  0.987073 )  


     PseudoPot. # 1 for H  read from file:
     /home/garima.iitr/.cache/.es/compmat/nah/H.pbe-rrkjus_psl.1.0.0.UPF
     MD5 check sum: 3f4114867bd07edc7f1424d066fc1888
     Pseudo is Ultrasoft, Zval =  1.0
     Generated using &quot;atomic&quot; code by A. Dal Corso  v.6.3MaX
     Using radial grid of  929 points,  2 beta functions with: 
                l(1) =   0
                l(2) =   0
     Q(r) pseudized with 0 coefficients 


     PseudoPot. # 2 for Na read from file:
     /home/garima.iitr/.cache/.es/compmat/nah/na_pbe_v1.5.uspp.F.UPF
     MD5 check sum: 44600605ef58000f06b90626533354dc
     Pseudo is Ultrasoft, Zval =  9.0
     Generated by new atomic code, or converted to UPF format
     Using radial grid of  819 points,  5 beta functions with: 
                l(1) =   0
                l(2) =   0
                l(3) =   1
                l(4) =   1
                l(5) =   2
     Q(r) pseudized with  8 coefficients,  rinner =    1.250   1.250   1.250
                                                       1.250   1.250

     atomic species   valence    mass     pseudopotential
        H              1.00     1.00750     H ( 1.00)
        Na             9.00    22.98900     Na( 1.00)

     48 Sym. Ops., with inversion, found



   Cartesian axes

     site n.     atom                  positions (alat units)
         1           Na  tau(   1) = (  -0.0000000   0.0000000   0.0000000  )
         2           H   tau(   2) = (   0.5065482   0.5065482   0.5065482  )

     number of k points=    16  Marzari-Vanderbilt smearing, width (Ry)=  0.0050
                       cart. coord. in units 2pi/alat
        k(    1) = (   0.0000000   0.0000000   0.0000000), wk =   0.0092593
        k(    2) = (  -0.1645122   0.1645122   0.1645122), wk =   0.0740741
        k(    3) = (  -0.3290243   0.3290243   0.3290243), wk =   0.0740741
        k(    4) = (   0.4935365  -0.4935365  -0.4935365), wk =   0.0370370
        k(    5) = (   0.0000000   0.0000000   0.3290243), wk =   0.0555556
        k(    6) = (  -0.1645122   0.1645122   0.4935365), wk =   0.2222222
        k(    7) = (   0.6580486  -0.6580486  -0.3290243), wk =   0.2222222
        k(    8) = (   0.4935365  -0.4935365  -0.1645122), wk =   0.2222222
        k(    9) = (   0.3290243  -0.3290243   0.0000000), wk =   0.1111111
        k(   10) = (   0.0000000   0.0000000   0.6580486), wk =   0.0555556
        k(   11) = (   0.8225608  -0.8225608  -0.1645122), wk =   0.2222222
        k(   12) = (   0.6580486  -0.6580486   0.0000000), wk =   0.1111111
        k(   13) = (   0.0000000   0.0000000  -0.9870729), wk =   0.0277778
        k(   14) = (   0.9870729  -0.6580486  -0.3290243), wk =   0.2222222
        k(   15) = (   0.8225608  -0.4935365  -0.1645122), wk =   0.2222222
        k(   16) = (   0.0000000   0.3290243  -0.9870729), wk =   0.1111111

     Dense  grid:    23409 G-vectors     FFT dimensions: (  40,  40,  40)

     Smooth grid:    16625 G-vectors     FFT dimensions: (  36,  36,  36)

     Estimated max dynamical RAM per process >       5.75 MB

     Estimated total dynamical RAM >     787.87 MB

     Initial potential from superposition of free atoms

     starting charge       9.9937, renormalised to      10.0000
     Starting wfcs are    6 randomized atomic wfcs +    3 random wfcs

     total cpu time spent up to now is        2.1 secs

     Self-consistent Calculation

     iteration #  1     ecut=    75.00 Ry     beta= 0.70
     Davidson diagonalization with overlap
     c_bands:  3 eigenvalues not converged
     ethr =  1.00E-06,  avg # of iterations = 14.4

     total cpu time spent up to now is        2.1 secs

     total energy              =     -96.52678513 Ry
     estimated scf accuracy    <       0.09149673 Ry

     iteration #  2     ecut=    75.00 Ry     beta= 0.70
     Davidson diagonalization with overlap
     ethr =  9.15E-04,  avg # of iterations =  1.9

     total cpu time spent up to now is        2.1 secs

     total energy              =     -96.54051363 Ry
     estimated scf accuracy    <       0.00161290 Ry

     iteration #  3     ecut=    75.00 Ry     beta= 0.70
     Davidson diagonalization with overlap
     ethr =  1.61E-05,  avg # of iterations =  2.4

     total cpu time spent up to now is        2.1 secs

     total energy              =     -96.54088510 Ry
     estimated scf accuracy    <       0.00009278 Ry

     iteration #  4     ecut=    75.00 Ry     beta= 0.70
     Davidson diagonalization with overlap
     ethr =  9.28E-07,  avg # of iterations =  2.1

     total cpu time spent up to now is        2.1 secs

     total energy              =     -96.54090912 Ry
     estimated scf accuracy    <       0.00000937 Ry

     iteration #  5     ecut=    75.00 Ry     beta= 0.70
     Davidson diagonalization with overlap
     ethr =  9.37E-08,  avg # of iterations =  2.0

     total cpu time spent up to now is        2.1 secs

     total energy              =     -96.54091096 Ry
     estimated scf accuracy    <       0.00000006 Ry

     iteration #  6     ecut=    75.00 Ry     beta= 0.70
     Davidson diagonalization with overlap
     ethr =  5.68E-10,  avg # of iterations =  2.2

     total cpu time spent up to now is        2.2 secs

     total energy              =     -96.54091100 Ry
     estimated scf accuracy    <          1.7E-09 Ry

     iteration #  7     ecut=    75.00 Ry     beta= 0.70
     Davidson diagonalization with overlap
     ethr =  1.66E-11,  avg # of iterations =  2.0

     total cpu time spent up to now is        2.2 secs

     End of self-consistent calculation

          k = 0.0000 0.0000 0.0000 (  2085 PWs)   bands (ev):

   -49.6092 -21.4935 -21.4935 -21.4935  -2.9833  11.0297  16.2182  16.2183
    16.2184

          k =-0.1645 0.1645 0.1645 (  2088 PWs)   bands (ev):

   -49.6075 -21.5170 -21.4963 -21.4963  -2.5131   9.4890  12.9691  15.1197
    15.1197

          k =-0.3290 0.3290 0.3290 (  2090 PWs)   bands (ev):

   -49.6042 -21.5634 -21.5019 -21.5019  -1.2565   6.2118  11.7119  14.2790
    14.2790

          k = 0.4935-0.4935-0.4935 (  2060 PWs)   bands (ev):

   -49.6025 -21.5862 -21.5047 -21.5047  -0.2311   4.3840  11.4161  14.0025
    14.0025

          k = 0.0000 0.0000 0.3290 (  2077 PWs)   bands (ev):

   -49.6070 -21.5161 -21.5014 -21.5014  -2.3629   9.4472  13.4770  13.6061
    13.6061

          k =-0.1645 0.1645 0.4935 (  2090 PWs)   bands (ev):

   -49.6042 -21.5495 -21.5083 -21.5081  -1.3781   7.3081  10.5586  12.8261
    14.6634

          k = 0.6580-0.6580-0.3290 (  2092 PWs)   bands (ev):

   -49.6020 -21.5759 -21.5178 -21.5098  -0.1378   5.0611   9.3590  12.8575
    14.0723

          k = 0.4935-0.4935-0.1645 (  2090 PWs)   bands (ev):

   -49.6026 -21.5689 -21.5208 -21.5048  -0.4875   5.6693   9.0930  13.7303
    14.2669

          k = 0.3290-0.3290 0.0000 (  2083 PWs)   bands (ev):

   -49.6053 -21.5392 -21.5105 -21.4980  -1.7804   8.0730  10.3019  14.6932
    15.3701

          k = 0.0000 0.0000 0.6580 (  2080 PWs)   bands (ev):

   -49.6026 -21.5575 -21.5171 -21.5171  -0.7707   6.7936  11.3691  11.8685
    11.8685

          k = 0.8226-0.8226-0.1645 (  2092 PWs)   bands (ev):

   -49.6009 -21.5680 -21.5309 -21.5200   0.1885   5.8063   8.4336  11.7027
    12.3034

          k = 0.6580-0.6580 0.0000 (  2121 PWs)   bands (ev):

   -49.6009 -21.5546 -21.5518 -21.5138   0.3618   6.3122   6.4961  12.3515
    12.9712

          k = 0.0000 0.0000-0.9871 (  2100 PWs)   bands (ev):

   -49.6004 -21.5763 -21.5251 -21.5251   0.4492   5.2593  10.6595  11.3026
    11.3026

          k = 0.9871-0.6580-0.3290 (  2092 PWs)   bands (ev):

   -49.6020 -21.5609 -21.5287 -21.5126  -0.3585   6.4046   8.3845  11.2916
    16.0517

          k = 0.8226-0.4935-0.1645 (  2100 PWs)   bands (ev):

   -49.6009 -21.5633 -21.5392 -21.5177   0.3654   5.7270   7.5031  10.4580
    16.0792

          k = 0.0000 0.3290-0.9871 (  2114 PWs)   bands (ev):

   -49.6004 -21.5635 -21.5378 -21.5265   0.5797   5.8754   7.7514   9.3397
    15.6806

     the Fermi energy is     2.2013 ev

!    total energy              =     -96.54091100 Ry
     estimated scf accuracy    <          7.5E-12 Ry
     smearing contrib. (-TS)   =       0.00000000 Ry
     internal energy E=F+TS    =     -96.54091100 Ry

     The total energy is F=E-TS. E is the sum of the following terms:
     one-electron contribution =     -79.06601232 Ry
     hartree contribution      =      40.89555028 Ry
     xc contribution           =     -15.07910131 Ry
     ewald contribution        =     -43.29134765 Ry

     convergence has been achieved in   7 iterations

     Forces acting on atoms (cartesian axes, Ry/au):

     atom    1 type  2   force =    -0.00000000    0.00000000    0.00000000
     atom    2 type  1   force =     0.00000000   -0.00000000   -0.00000000

     Total force =     0.000000     Total SCF correction =     0.000000


     Computing stress (Cartesian axis) and pressure

          total   stress  (Ry/bohr**3)                   (kbar)     P=        0.16
   0.00000111   0.00000000   0.00000000            0.16        0.00        0.00
   0.00000000   0.00000111   0.00000000            0.00        0.16        0.00
  -0.00000000   0.00000000   0.00000111           -0.00        0.00        0.16

 
     init_run     :      0.19s CPU      0.29s WALL (       2 calls)
     electrons    :      0.95s CPU      1.15s WALL (       7 calls)
     update_pot   :      0.16s CPU      0.17s WALL (       5 calls)
     forces       :      0.09s CPU      0.10s WALL (       7 calls)
     stress       :      0.17s CPU      0.18s WALL (       7 calls)

     Called by init_run:
     wfcinit      :      0.01s CPU      0.04s WALL (       2 calls)
     potinit      :      0.03s CPU      0.04s WALL (       2 calls)
     hinit0       :      0.07s CPU      0.12s WALL (       2 calls)

     Called by electrons:
     c_bands      :      0.42s CPU      0.48s WALL (      73 calls)
     sum_band     :      0.26s CPU      0.28s WALL (      73 calls)
     v_of_rho     :      0.14s CPU      0.15s WALL (      79 calls)
     newd         :      0.08s CPU      0.08s WALL (      79 calls)
     mix_rho      :      0.03s CPU      0.03s WALL (      73 calls)

     Called by c_bands:
     init_us_2    :      0.01s CPU      0.01s WALL (     324 calls)
     init_us_2:cp :      0.01s CPU      0.01s WALL (     324 calls)
     cegterg      :      0.31s CPU      0.34s WALL (     146 calls)

     Called by *egterg:
     cdiaghg      :      0.05s CPU      0.07s WALL (     469 calls)
     h_psi        :      0.24s CPU      0.27s WALL (     485 calls)
     s_psi        :      0.00s CPU      0.00s WALL (     485 calls)
     g_psi        :      0.00s CPU      0.00s WALL (     335 calls)

     Called by h_psi:
     h_psi:calbec :      0.01s CPU      0.02s WALL (     485 calls)
     vloc_psi     :      0.22s CPU      0.24s WALL (     485 calls)
     add_vuspsi   :      0.00s CPU      0.01s WALL (     485 calls)

     General routines
     calbec       :      0.01s CPU      0.02s WALL (     701 calls)
     fft          :      0.07s CPU      0.09s WALL (    1075 calls)
     ffts         :      0.02s CPU      0.02s WALL (     152 calls)
     fftw         :      0.24s CPU      0.26s WALL (    8034 calls)
     interpolate  :      0.01s CPU      0.01s WALL (      79 calls)
 
     Parallel routines
 
     PWSCF        :      1.78s CPU      2.25s WALL

 
   This run was terminated on:  20: 8:17  31Oct2023            

=------------------------------------------------------------------------------=
   JOB DONE.
=------------------------------------------------------------------------------=
Job execution finished at: Tue Oct 31 20:08:17 IST 2023
