==========================================
SLURM_CLUSTER_NAME = paramganga
SLURM_ARRAY_JOB_ID = 
SLURM_ARRAY_TASK_ID = 
SLURM_ARRAY_TASK_COUNT = 
SLURM_ARRAY_TASK_MAX = 
SLURM_ARRAY_TASK_MIN = 
SLURM_JOB_ACCOUNT = iitr
SLURM_JOB_ID = 168267
SLURM_JOB_NAME = 19280
SLURM_JOB_NODELIST = cn[001-003]
SLURM_JOB_USER = garima.iitr
SLURM_JOB_UID = 38339
SLURM_JOB_PARTITION = small
SLURM_TASK_PID = 47688
SLURM_SUBMIT_DIR = /home/garima.iitr/.cache/.es/compmat/nah
SLURM_CPUS_ON_NODE = 48
SLURM_NTASKS = 144
SLURM_TASK_PID = 47688
==========================================
cn001
 
:: initializing oneAPI environment ...
   slurm_script: BASH_VERSION = 4.2.46(2)-release
   args: Using "$@" for setvars.sh arguments: 
:: advisor -- latest
:: ccl -- latest
:: clck -- latest
:: compiler -- latest
:: dal -- latest
:: debugger -- latest
:: dev-utilities -- latest
:: dnnl -- latest
:: dpcpp-ct -- latest
:: dpl -- latest
:: inspector -- latest
:: intelpython -- latest
:: ipp -- latest
:: ippcp -- latest
:: ipp -- latest
:: itac -- latest
:: mkl -- latest
:: mpi -- latest
:: tbb -- latest
:: vpl -- latest
:: vtune -- latest
:: oneAPI environment initialized ::
 
Job execution start: Tue Oct 31 19:19:10 IST 2023
Job submitted by garima.iitr
The job ID is:168267

     Program PWSCF v.7.1 starts on 31Oct2023 at 19:19:14 

     This program is part of the open-source Quantum ESPRESSO suite
     for quantum simulation of materials; please cite
         "P. Giannozzi et al., J. Phys.:Condens. Matter 21 395502 (2009);
         "P. Giannozzi et al., J. Phys.:Condens. Matter 29 465901 (2017);
         "P. Giannozzi et al., J. Chem. Phys. 152 154105 (2020);
          URL http://www.quantum-espresso.org", 
     in publications or presentations arising from this work. More details at
     http://www.quantum-espresso.org/quote

     Parallel version (MPI & OpenMP), running on     144 processor cores
     Number of MPI processes:               144
     Threads/MPI process:                     1

     MPI processes distributed on     3 nodes
     167556 MiB available memory on the printing compute node when the environment starts
 
     Reading input from nah.in

     Current dimensions of program PWSCF are:
     Max number of different atomic species (ntypx) = 10
     Max number of k-points (npk) =  40000
     Max angular momentum in pseudopotentials (lmaxx) =  4
     Message from routine volume:
     axis vectors are left-handed

     IMPORTANT: XC functional enforced from input :
     Exchange-correlation= PBE
                           (   1   4   3   4   0   0   0)
     Any further DFT definition will be discarded
     Please, verify this is what you really want

     Message from routine setup:
     using ibrav=0 with symmetry is DISCOURAGED, use correct ibrav instead
 
     K-points division:     npool     =       8
     R & G space division:  proc/nbgrp/npool/nimage =      18
     Subspace diagonalization in iterative solution of the eigenvalue problem:
     a serial algorithm will be used

 
     Parallelization info
     --------------------
     sticks:   dense  smooth     PW     G-vecs:    dense   smooth      PW
     Min          58      47     14                 1244      895     151
     Max          59      48     15                 1247      898     155
     Sum        1045     847    253                22419    16145    2733
 
     Using Slab Decomposition
 


     bravais-lattice index     =            0
     lattice parameter (alat)  =       9.0194  a.u.
     unit-cell volume          =     183.4287 (a.u.)^3
     number of atoms/cell      =            2
     number of atomic types    =            2
     number of electrons       =        10.00
     number of Kohn-Sham states=            9
     kinetic-energy cutoff     =      75.0000  Ry
     charge density cutoff     =     375.0000  Ry
     scf convergence threshold =      1.0E-08
     mixing beta               =       0.7000
     number of iterations used =            8  plain     mixing
     energy convergence thresh.=      1.0E-04
     force convergence thresh. =      1.0E-03
     Exchange-correlation= PBE
                           (   1   4   3   4   0   0   0)
     nstep                     =           50


     celldm(1)=   9.019360  celldm(2)=   0.000000  celldm(3)=   0.000000
     celldm(4)=   0.000000  celldm(5)=   0.000000  celldm(6)=   0.000000

     crystal axes: (cart. coord. in units of alat)
               a(1) = (   0.500000   0.500000   0.000000 )  
               a(2) = (   0.500000   0.000000   0.500000 )  
               a(3) = (   0.000000   0.500000   0.500000 )  

     reciprocal axes: (cart. coord. in units 2 pi/alat)
               b(1) = (  1.000000  1.000000 -1.000000 )  
               b(2) = (  1.000000 -1.000000  1.000000 )  
               b(3) = ( -1.000000  1.000000  1.000000 )  


     PseudoPot. # 1 for H  read from file:
     /home/garima.iitr/.cache/.es/compmat/naalh4/H.pbe-rrkjus_psl.1.0.0.UPF
     MD5 check sum: 3f4114867bd07edc7f1424d066fc1888
     Pseudo is Ultrasoft, Zval =  1.0
     Generated using &quot;atomic&quot; code by A. Dal Corso  v.6.3MaX
     Using radial grid of  929 points,  2 beta functions with: 
                l(1) =   0
                l(2) =   0
     Q(r) pseudized with 0 coefficients 


     PseudoPot. # 2 for Na read from file:
     /home/garima.iitr/.cache/.es/compmat/naalh4/na_pbe_v1.5.uspp.F.UPF
     MD5 check sum: 44600605ef58000f06b90626533354dc
     Pseudo is Ultrasoft, Zval =  9.0
     Generated by new atomic code, or converted to UPF format
     Using radial grid of  819 points,  5 beta functions with: 
                l(1) =   0
                l(2) =   0
                l(3) =   1
                l(4) =   1
                l(5) =   2
     Q(r) pseudized with  8 coefficients,  rinner =    1.250   1.250   1.250
                                                       1.250   1.250

     atomic species   valence    mass     pseudopotential
        H              1.00     1.00750     H ( 1.00)
        Na             9.00    22.98900     Na( 1.00)

     48 Sym. Ops., with inversion, found



   Cartesian axes

     site n.     atom                  positions (alat units)
         1           Na  tau(   1) = (   0.0000000   0.0000000   0.0000000  )
         2           H   tau(   2) = (   0.5000000   0.5000000   0.5000000  )

     number of k points=    16  Marzari-Vanderbilt smearing, width (Ry)=  0.0050
                       cart. coord. in units 2pi/alat
        k(    1) = (   0.0000000   0.0000000   0.0000000), wk =   0.0092593
        k(    2) = (  -0.1666667   0.1666667   0.1666667), wk =   0.0740741
        k(    3) = (  -0.3333333   0.3333333   0.3333333), wk =   0.0740741
        k(    4) = (   0.5000000  -0.5000000  -0.5000000), wk =   0.0370370
        k(    5) = (   0.0000000   0.0000000   0.3333333), wk =   0.0555556
        k(    6) = (  -0.1666667   0.1666667   0.5000000), wk =   0.2222222
        k(    7) = (   0.6666667  -0.6666667  -0.3333333), wk =   0.2222222
        k(    8) = (   0.5000000  -0.5000000  -0.1666667), wk =   0.2222222
        k(    9) = (   0.3333333  -0.3333333   0.0000000), wk =   0.1111111
        k(   10) = (   0.0000000   0.0000000   0.6666667), wk =   0.0555556
        k(   11) = (   0.8333333  -0.8333333  -0.1666667), wk =   0.2222222
        k(   12) = (   0.6666667  -0.6666667  -0.0000000), wk =   0.1111111
        k(   13) = (   0.0000000   0.0000000  -1.0000000), wk =   0.0277778
        k(   14) = (   1.0000000  -0.6666667  -0.3333333), wk =   0.2222222
        k(   15) = (   0.8333333  -0.5000000  -0.1666667), wk =   0.2222222
        k(   16) = (   0.0000000   0.3333333  -1.0000000), wk =   0.1111111

     Dense  grid:    22419 G-vectors     FFT dimensions: (  40,  40,  40)

     Smooth grid:    16145 G-vectors     FFT dimensions: (  36,  36,  36)

     Estimated max dynamical RAM per process >       3.47 MB

     Estimated total dynamical RAM >     461.12 MB

     Initial potential from superposition of free atoms

     starting charge       9.9937, renormalised to      10.0000
     Starting wfcs are    6 randomized atomic wfcs +    3 random wfcs

     total cpu time spent up to now is        0.4 secs

     Self-consistent Calculation

     iteration #  1     ecut=    75.00 Ry     beta= 0.70
     Davidson diagonalization with overlap
     ethr =  1.00E-02,  avg # of iterations =  5.5

     Threshold (ethr) on eigenvalues was too large:
     Diagonalizing with lowered threshold

     Davidson diagonalization with overlap
     ethr =  9.22E-04,  avg # of iterations =  1.0

     total cpu time spent up to now is        0.5 secs

     total energy              =     -96.52669142 Ry
     estimated scf accuracy    <       0.09182796 Ry

     iteration #  2     ecut=    75.00 Ry     beta= 0.70
     Davidson diagonalization with overlap
     ethr =  9.18E-04,  avg # of iterations =  1.9

     total cpu time spent up to now is        0.5 secs

     total energy              =     -96.54025987 Ry
     estimated scf accuracy    <       0.00154798 Ry

     iteration #  3     ecut=    75.00 Ry     beta= 0.70
     Davidson diagonalization with overlap
     ethr =  1.55E-05,  avg # of iterations =  4.4

     total cpu time spent up to now is        0.5 secs

     total energy              =     -96.54062264 Ry
     estimated scf accuracy    <       0.00009365 Ry

     iteration #  4     ecut=    75.00 Ry     beta= 0.70
     Davidson diagonalization with overlap
     ethr =  9.36E-07,  avg # of iterations =  2.9

     total cpu time spent up to now is        0.5 secs

     total energy              =     -96.54064742 Ry
     estimated scf accuracy    <       0.00000939 Ry

     iteration #  5     ecut=    75.00 Ry     beta= 0.70
     Davidson diagonalization with overlap
     ethr =  9.39E-08,  avg # of iterations =  2.0

     total cpu time spent up to now is        0.6 secs

     total energy              =     -96.54064921 Ry
     estimated scf accuracy    <       0.00000006 Ry

     iteration #  6     ecut=    75.00 Ry     beta= 0.70
     Davidson diagonalization with overlap
     ethr =  5.78E-10,  avg # of iterations =  2.1

     total cpu time spent up to now is        0.6 secs

     End of self-consistent calculation

          k = 0.0000 0.0000 0.0000 (  1989 PWs)   bands (ev):

   -49.3510 -21.2312 -21.2312 -21.2312  -2.8981  11.5736  16.7061  16.7064
    17.7029

          k =-0.1667 0.1667 0.1667 (  2007 PWs)   bands (ev):

   -49.3490 -21.2581 -21.2344 -21.2344  -2.4126   9.9434  13.4322  15.6120
    15.6120

          k =-0.3333 0.3333 0.3333 (  2006 PWs)   bands (ev):

   -49.3451 -21.3111 -21.2407 -21.2407  -1.1155   6.5334  12.1817  14.7366
    14.7366

          k = 0.5000-0.5000-0.5000 (  2006 PWs)   bands (ev):

   -49.3431 -21.3373 -21.2439 -21.2439  -0.0547   4.6451  11.8859  14.4415
    14.4415

          k = 0.0000 0.0000 0.3333 (  2009 PWs)   bands (ev):

   -49.3484 -21.2571 -21.2402 -21.2402  -2.2578   9.9055  13.8938  14.0805
    14.0805

          k =-0.1667 0.1667 0.5000 (  2008 PWs)   bands (ev):

   -49.3451 -21.2953 -21.2480 -21.2478  -1.2424   7.6693  10.9488  13.2847
    15.1836

          k = 0.6667-0.6667-0.3333 (  2018 PWs)   bands (ev):

   -49.3424 -21.3254 -21.2588 -21.2497   0.0385   5.3413   9.7351  13.3083
    14.6196

          k = 0.5000-0.5000-0.1667 (  2020 PWs)   bands (ev):

   -49.3431 -21.3174 -21.2622 -21.2439  -0.3228   5.9715   9.4598  14.1873
    14.8248

          k = 0.3333-0.3333 0.0000 (  2003 PWs)   bands (ev):

   -49.3464 -21.2835 -21.2505 -21.2363  -1.6567   8.4732  10.6743  15.2438
    15.8518

          k = 0.0000 0.0000 0.6667 (  2016 PWs)   bands (ev):

   -49.3431 -21.3043 -21.2580 -21.2580  -0.6188   7.1267  11.7295  12.3174
    12.3174

          k = 0.8333-0.8333-0.1667 (  2013 PWs)   bands (ev):

   -49.3412 -21.3161 -21.2737 -21.2612   0.3695   6.0988   8.7812  12.1475
    12.8044

          k = 0.6667-0.6667-0.0000 (  2015 PWs)   bands (ev):

   -49.3411 -21.3009 -21.2976 -21.2542   0.5510   6.6280   6.7914  12.8004
    13.5047

          k = 0.0000 0.0000-1.0000 (  2044 PWs)   bands (ev):

   -49.3405 -21.3256 -21.2670 -21.2670   0.6357   5.5327  11.0008  11.7444
    11.7444

          k = 1.0000-0.6667-0.3333 (  2012 PWs)   bands (ev):

   -49.3425 -21.3082 -21.2712 -21.2528  -0.1922   6.7303   8.7161  11.7464
    16.6762

          k = 0.8333-0.5000-0.1667 (  2012 PWs)   bands (ev):

   -49.3411 -21.3108 -21.2832 -21.2587   0.5548   6.0184   7.8249  10.9008
    16.6840

          k = 0.0000 0.3333-1.0000 (  2018 PWs)   bands (ev):

   -49.3405 -21.3109 -21.2816 -21.2688   0.7731   6.1594   8.0699   9.7798
    16.1101

     the Fermi energy is     1.2796 ev

!    total energy              =     -96.54064924 Ry
     estimated scf accuracy    <          1.6E-09 Ry
     smearing contrib. (-TS)   =       0.00000000 Ry
     internal energy E=F+TS    =     -96.54064924 Ry

     The total energy is F=E-TS. E is the sum of the following terms:
     one-electron contribution =     -78.09933266 Ry
     hartree contribution      =      40.50708725 Ry
     xc contribution           =     -15.09009649 Ry
     ewald contribution        =     -43.85830734 Ry

     convergence has been achieved in   6 iterations

     Forces acting on atoms (cartesian axes, Ry/au):

     atom    1 type  2   force =     0.00000000    0.00000000    0.00000000
     atom    2 type  1   force =     0.00000000    0.00000000    0.00000000

     Total force =     0.000000     Total SCF correction =     0.000000


     Computing stress (Cartesian axis) and pressure

          total   stress  (Ry/bohr**3)                   (kbar)     P=        9.65
   0.00006563   0.00000000  -0.00000000            9.65        0.00       -0.00
   0.00000000   0.00006563  -0.00000000            0.00        9.65       -0.00
   0.00000000  -0.00000000   0.00006563            0.00       -0.00        9.65


     BFGS Geometry Optimization
     Energy error            =      0.0E+00 Ry
     Gradient error          =      0.0E+00 Ry/Bohr

     bfgs converged in   1 scf cycles and   0 bfgs steps
     (criteria: energy <  1.0E-04 Ry, force <  1.0E-03 Ry/Bohr)

     End of BFGS Geometry Optimization

     Final energy             =     -96.5406492405 Ry
Begin final coordinates

ATOMIC_POSITIONS (crystal)
Na            0.0000000000        0.0000000000        0.0000000000
H             0.5000000000        0.5000000000        0.5000000000
End final coordinates


 
     init_run     :      0.10s CPU      0.18s WALL (       1 calls)
     electrons    :      0.13s CPU      0.16s WALL (       1 calls)
     forces       :      0.00s CPU      0.01s WALL (       1 calls)
     stress       :      0.01s CPU      0.01s WALL (       1 calls)

     Called by init_run:
     wfcinit      :      0.00s CPU      0.03s WALL (       1 calls)
     potinit      :      0.01s CPU      0.02s WALL (       1 calls)
     hinit0       :      0.02s CPU      0.05s WALL (       1 calls)

     Called by electrons:
     c_bands      :      0.04s CPU      0.06s WALL (       7 calls)
     sum_band     :      0.05s CPU      0.06s WALL (       7 calls)
     v_of_rho     :      0.01s CPU      0.02s WALL (       7 calls)
     newd         :      0.01s CPU      0.01s WALL (       7 calls)
     mix_rho      :      0.00s CPU      0.01s WALL (       7 calls)

     Called by c_bands:
     init_us_2    :      0.00s CPU      0.00s WALL (      34 calls)
     init_us_2:cp :      0.00s CPU      0.00s WALL (      34 calls)
     cegterg      :      0.03s CPU      0.04s WALL (      14 calls)

     Called by *egterg:
     cdiaghg      :      0.01s CPU      0.02s WALL (      56 calls)
     h_psi        :      0.02s CPU      0.04s WALL (      60 calls)
     s_psi        :      0.00s CPU      0.00s WALL (      60 calls)
     g_psi        :      0.00s CPU      0.00s WALL (      44 calls)

     Called by h_psi:
     h_psi:calbec :      0.00s CPU      0.01s WALL (      60 calls)
     vloc_psi     :      0.02s CPU      0.03s WALL (      60 calls)
     add_vuspsi   :      0.00s CPU      0.00s WALL (      60 calls)

     General routines
     calbec       :      0.00s CPU      0.01s WALL (      84 calls)
     fft          :      0.01s CPU      0.02s WALL (      98 calls)
     ffts         :      0.01s CPU      0.01s WALL (      14 calls)
     fftw         :      0.02s CPU      0.03s WALL (     830 calls)
     interpolate  :      0.00s CPU      0.00s WALL (       7 calls)
 
     Parallel routines
 
     PWSCF        :      0.37s CPU      0.62s WALL

 
   This run was terminated on:  19:19:14  31Oct2023            

=------------------------------------------------------------------------------=
   JOB DONE.
=------------------------------------------------------------------------------=
Job execution finished at: Tue Oct 31 19:19:15 IST 2023
