==========================================
SLURM_CLUSTER_NAME = paramganga
SLURM_ARRAY_JOB_ID = 
SLURM_ARRAY_TASK_ID = 
SLURM_ARRAY_TASK_COUNT = 
SLURM_ARRAY_TASK_MAX = 
SLURM_ARRAY_TASK_MIN = 
SLURM_JOB_ACCOUNT = iitr
SLURM_JOB_ID = 173880
SLURM_JOB_NAME = 19280
SLURM_JOB_NODELIST = cn[087-089]
SLURM_JOB_USER = garima.iitr
SLURM_JOB_UID = 38339
SLURM_JOB_PARTITION = small
SLURM_TASK_PID = 35195
SLURM_SUBMIT_DIR = /home/garima.iitr/.cache/.es/compmat/k3alh6
SLURM_CPUS_ON_NODE = 48
SLURM_NTASKS = 144
SLURM_TASK_PID = 35195
==========================================
cn087
 
:: initializing oneAPI environment ...
   slurm_script: BASH_VERSION = 4.2.46(2)-release
   args: Using "$@" for setvars.sh arguments: 
:: advisor -- latest
:: ccl -- latest
:: clck -- latest
:: compiler -- latest
:: dal -- latest
:: debugger -- latest
:: dev-utilities -- latest
:: dnnl -- latest
:: dpcpp-ct -- latest
:: dpl -- latest
:: inspector -- latest
:: intelpython -- latest
:: ipp -- latest
:: ippcp -- latest
:: ipp -- latest
:: itac -- latest
:: mkl -- latest
:: mpi -- latest
:: tbb -- latest
:: vpl -- latest
:: vtune -- latest
:: oneAPI environment initialized ::
 
Job execution start: Mon Nov 27 19:39:54 IST 2023
Job submitted by garima.iitr
The job ID is:173880

     Program PWSCF v.7.1 starts on 27Nov2023 at 19:39:57 

     This program is part of the open-source Quantum ESPRESSO suite
     for quantum simulation of materials; please cite
         "P. Giannozzi et al., J. Phys.:Condens. Matter 21 395502 (2009);
         "P. Giannozzi et al., J. Phys.:Condens. Matter 29 465901 (2017);
         "P. Giannozzi et al., J. Chem. Phys. 152 154105 (2020);
          URL http://www.quantum-espresso.org", 
     in publications or presentations arising from this work. More details at
     http://www.quantum-espresso.org/quote

     Parallel version (MPI & OpenMP), running on     144 processor cores
     Number of MPI processes:               144
     Threads/MPI process:                     1

     MPI processes distributed on     3 nodes
     169683 MiB available memory on the printing compute node when the environment starts
 
     Reading input from k3alh6.in

     Current dimensions of program PWSCF are:
     Max number of different atomic species (ntypx) = 10
     Max number of k-points (npk) =  40000
     Max angular momentum in pseudopotentials (lmaxx) =  4
     file Al.pbe-n-kjpaw_psl.1.0.0.UPF: wavefunction(s)  3S 3P renormalized
     file K.pbe-spn-kjpaw_psl.1.0.0.UPF: wavefunction(s)  3S renormalized

     IMPORTANT: XC functional enforced from input :
     Exchange-correlation= PBE
                           (   1   4   3   4   0   0   0)
     Any further DFT definition will be discarded
     Please, verify this is what you really want

     Message from routine setup:
     using ibrav=0 with symmetry is DISCOURAGED, use correct ibrav instead
 
     K-points division:     npool     =       3
     R & G space division:  proc/nbgrp/npool/nimage =      48
     Subspace diagonalization in iterative solution of the eigenvalue problem:
     a serial algorithm will be used

 
     Parallelization info
     --------------------
     sticks:   dense  smooth     PW     G-vecs:    dense   smooth      PW
     Min          79      63     18                 5248     3753     564
     Max          80      64     19                 5256     3761     568
     Sum        3827    3061    869               252073   180385   27179
 
     Using Slab Decomposition
 


     bravais-lattice index     =            0
     lattice parameter (alat)  =      11.2914  a.u.
     unit-cell volume          =    2056.0729 (a.u.)^3
     number of atoms/cell      =           20
     number of atomic types    =            3
     number of electrons       =        72.00
     number of Kohn-Sham states=           43
     kinetic-energy cutoff     =      75.0000  Ry
     charge density cutoff     =     375.0000  Ry
     scf convergence threshold =      1.0E-08
     mixing beta               =       0.7000
     number of iterations used =            8  plain     mixing
     energy convergence thresh.=      1.0E-04
     force convergence thresh. =      1.0E-03
     press convergence thresh. =      5.0E-01
     Exchange-correlation= PBE
                           (   1   4   3   4   0   0   0)
     nstep                     =           50


     celldm(1)=  11.291378  celldm(2)=   0.000000  celldm(3)=   0.000000
     celldm(4)=   0.000000  celldm(5)=   0.000000  celldm(6)=   0.000000

     crystal axes: (cart. coord. in units of alat)
               a(1) = (   1.000000   0.000000   0.000000 )  
               a(2) = (   0.000000   1.006241   0.000000 )  
               a(3) = (  -0.986032   0.000000   1.419371 )  

     reciprocal axes: (cart. coord. in units 2 pi/alat)
               b(1) = (  1.000000  0.000000  0.694696 )  
               b(2) = (  0.000000  0.993798  0.000000 )  
               b(3) = (  0.000000  0.000000  0.704538 )  


     PseudoPot. # 1 for Al read from file:
     /home/garima.iitr/.cache/.es/compmat/kalh4/Al.pbe-n-kjpaw_psl.1.0.0.UPF
     MD5 check sum: 502b6b27b9c6270cab5dd1084b96fa6d
     Pseudo is Projector augmented-wave + core cor, Zval =  3.0
     Generated using &quot;atomic&quot; code by A. Dal Corso  v.6.3
     Shape of augmentation charge: PSQ
     Using radial grid of 1135 points,  6 beta functions with: 
                l(1) =   0
                l(2) =   0
                l(3) =   1
                l(4) =   1
                l(5) =   2
                l(6) =   2
     Q(r) pseudized with 0 coefficients 


     PseudoPot. # 2 for H  read from file:
     /home/garima.iitr/.cache/.es/compmat/kalh4/H.pbe-rrkjus_psl.1.0.0.UPF
     MD5 check sum: 3f4114867bd07edc7f1424d066fc1888
     Pseudo is Ultrasoft, Zval =  1.0
     Generated using &quot;atomic&quot; code by A. Dal Corso  v.6.3MaX
     Using radial grid of  929 points,  2 beta functions with: 
                l(1) =   0
                l(2) =   0
     Q(r) pseudized with 0 coefficients 


     PseudoPot. # 3 for K  read from file:
     /home/garima.iitr/.cache/.es/compmat/kalh4/K.pbe-spn-kjpaw_psl.1.0.0.UPF
     MD5 check sum: 34cc42130a09071ebe376fd42eb21491
     Pseudo is Projector augmented-wave + core cor, Zval =  9.0
     Generated using &quot;atomic&quot; code by A. Dal Corso  v.6.2.2
     Shape of augmentation charge: PSQ
     Using radial grid of 1165 points,  6 beta functions with: 
                l(1) =   0
                l(2) =   0
                l(3) =   1
                l(4) =   1
                l(5) =   2
                l(6) =   2
     Q(r) pseudized with 0 coefficients 


     atomic species   valence    mass     pseudopotential
        Al             3.00    26.98100     Al( 1.00)
        H              1.00     1.00750     H ( 1.00)
        K              9.00    39.09830     K ( 1.00)

      4 Sym. Ops., with inversion, found ( 2 have fractional translation)



   Cartesian axes

     site n.     atom                  positions (alat units)
         1           K   tau(   1) = (   0.4973783   0.5314141   0.3534854  )
         2           K   tau(   2) = (  -0.4834100   0.4748264   1.0658853  )
         3           K   tau(   3) = (   0.0096058   0.0282938   0.3561999  )
         4           K   tau(   4) = (   0.0043625   0.9779467   1.0631708  )
         5           K   tau(   5) = (  -0.4930158   0.0000000   0.7096854  )
         6           K   tau(   6) = (   0.0000000   0.5031203   0.0000000  )
         7           Al  tau(   7) = (   0.5000000   0.0000000   0.0000000  )
         8           Al  tau(   8) = (   0.0069842   0.5031203   0.7096854  )
         9           H   tau(   9) = (   0.1740629   0.7436776   0.6587716  )
        10           H   tau(  10) = (  -0.1600945   0.2625629   0.7605991  )
        11           H   tau(  11) = (   0.3329213   0.2405573   0.0509137  )
        12           H   tau(  12) = (  -0.3189529   0.7656832   1.3684570  )
        13           H   tau(  13) = (  -0.2491776   0.1728834   1.3779197  )
        14           H   tau(  14) = (   0.2631460   0.8333571   0.0414511  )
        15           H   tau(  15) = (  -0.2298699   0.6760037   0.7511364  )
        16           H   tau(  16) = (   0.2438382   0.3302368   0.6682343  )
        17           H   tau(  17) = (   0.0691117   0.5227306   0.9988379  )
        18           H   tau(  18) = (  -0.0551433   0.4835099   0.4205329  )
        19           H   tau(  19) = (  -0.5481591   0.0196103   1.1302183  )
        20           H   tau(  20) = (   0.5621275   0.9866302   0.2891525  )

     number of k points=    80  Marzari-Vanderbilt smearing, width (Ry)=  0.0050
                       cart. coord. in units 2pi/alat
        k(    1) = (   0.0000000   0.0000000   0.0000000), wk =   0.0092593
        k(    2) = (   0.0000000   0.0000000   0.1174229), wk =   0.0185185
        k(    3) = (   0.0000000   0.0000000   0.2348459), wk =   0.0185185
        k(    4) = (   0.0000000   0.0000000  -0.3522688), wk =   0.0092593
        k(    5) = (   0.0000000   0.1656330   0.0000000), wk =   0.0185185
        k(    6) = (   0.0000000   0.1656330   0.1174229), wk =   0.0370370
        k(    7) = (   0.0000000   0.1656330   0.2348459), wk =   0.0370370
        k(    8) = (   0.0000000   0.1656330  -0.3522688), wk =   0.0185185
        k(    9) = (   0.0000000   0.3312661   0.0000000), wk =   0.0185185
        k(   10) = (   0.0000000   0.3312661   0.1174229), wk =   0.0370370
        k(   11) = (   0.0000000   0.3312661   0.2348459), wk =   0.0370370
        k(   12) = (   0.0000000   0.3312661  -0.3522688), wk =   0.0185185
        k(   13) = (   0.0000000  -0.4968991   0.0000000), wk =   0.0092593
        k(   14) = (   0.0000000  -0.4968991   0.1174229), wk =   0.0185185
        k(   15) = (   0.0000000  -0.4968991   0.2348459), wk =   0.0185185
        k(   16) = (   0.0000000  -0.4968991  -0.3522688), wk =   0.0092593
        k(   17) = (   0.1666667   0.0000000   0.1157827), wk =   0.0185185
        k(   18) = (   0.1666667   0.0000000   0.2332056), wk =   0.0185185
        k(   19) = (   0.1666667   0.0000000   0.3506286), wk =   0.0185185
        k(   20) = (   0.1666667   0.0000000  -0.2364861), wk =   0.0185185
        k(   21) = (   0.1666667   0.0000000  -0.1190631), wk =   0.0185185
        k(   22) = (   0.1666667   0.0000000  -0.0016402), wk =   0.0185185
        k(   23) = (   0.1666667   0.1656330   0.1157827), wk =   0.0370370
        k(   24) = (   0.1666667   0.1656330   0.2332056), wk =   0.0370370
        k(   25) = (   0.1666667   0.1656330   0.3506286), wk =   0.0370370
        k(   26) = (   0.1666667   0.1656330  -0.2364861), wk =   0.0370370
        k(   27) = (   0.1666667   0.1656330  -0.1190631), wk =   0.0370370
        k(   28) = (   0.1666667   0.1656330  -0.0016402), wk =   0.0370370
        k(   29) = (   0.1666667   0.3312661   0.1157827), wk =   0.0370370
        k(   30) = (   0.1666667   0.3312661   0.2332056), wk =   0.0370370
        k(   31) = (   0.1666667   0.3312661   0.3506286), wk =   0.0370370
        k(   32) = (   0.1666667   0.3312661  -0.2364861), wk =   0.0370370
        k(   33) = (   0.1666667   0.3312661  -0.1190631), wk =   0.0370370
        k(   34) = (   0.1666667   0.3312661  -0.0016402), wk =   0.0370370
        k(   35) = (   0.1666667  -0.4968991   0.1157827), wk =   0.0185185
        k(   36) = (   0.1666667  -0.4968991   0.2332056), wk =   0.0185185
        k(   37) = (   0.1666667  -0.4968991   0.3506286), wk =   0.0185185
        k(   38) = (   0.1666667  -0.4968991  -0.2364861), wk =   0.0185185
        k(   39) = (   0.1666667  -0.4968991  -0.1190631), wk =   0.0185185
        k(   40) = (   0.1666667  -0.4968991  -0.0016402), wk =   0.0185185
        k(   41) = (   0.3333333   0.0000000   0.2315654), wk =   0.0185185
        k(   42) = (   0.3333333   0.0000000   0.3489884), wk =   0.0185185
        k(   43) = (   0.3333333   0.0000000   0.4664113), wk =   0.0185185
        k(   44) = (   0.3333333   0.0000000  -0.1207033), wk =   0.0185185
        k(   45) = (   0.3333333   0.0000000  -0.0032804), wk =   0.0185185
        k(   46) = (   0.3333333   0.0000000   0.1141425), wk =   0.0185185
        k(   47) = (   0.3333333   0.1656330   0.2315654), wk =   0.0370370
        k(   48) = (   0.3333333   0.1656330   0.3489884), wk =   0.0370370
        k(   49) = (   0.3333333   0.1656330   0.4664113), wk =   0.0370370
        k(   50) = (   0.3333333   0.1656330  -0.1207033), wk =   0.0370370
        k(   51) = (   0.3333333   0.1656330  -0.0032804), wk =   0.0370370
        k(   52) = (   0.3333333   0.1656330   0.1141425), wk =   0.0370370
        k(   53) = (   0.3333333   0.3312661   0.2315654), wk =   0.0370370
        k(   54) = (   0.3333333   0.3312661   0.3489884), wk =   0.0370370
        k(   55) = (   0.3333333   0.3312661   0.4664113), wk =   0.0370370
        k(   56) = (   0.3333333   0.3312661  -0.1207033), wk =   0.0370370
        k(   57) = (   0.3333333   0.3312661  -0.0032804), wk =   0.0370370
        k(   58) = (   0.3333333   0.3312661   0.1141425), wk =   0.0370370
        k(   59) = (   0.3333333  -0.4968991   0.2315654), wk =   0.0185185
        k(   60) = (   0.3333333  -0.4968991   0.3489884), wk =   0.0185185
        k(   61) = (   0.3333333  -0.4968991   0.4664113), wk =   0.0185185
        k(   62) = (   0.3333333  -0.4968991  -0.1207033), wk =   0.0185185
        k(   63) = (   0.3333333  -0.4968991  -0.0032804), wk =   0.0185185
        k(   64) = (   0.3333333  -0.4968991   0.1141425), wk =   0.0185185
        k(   65) = (  -0.5000000   0.0000000  -0.3473482), wk =   0.0092593
        k(   66) = (  -0.5000000   0.0000000  -0.2299252), wk =   0.0185185
        k(   67) = (  -0.5000000   0.0000000  -0.1125023), wk =   0.0185185
        k(   68) = (  -0.5000000   0.0000000  -0.6996169), wk =   0.0092593
        k(   69) = (  -0.5000000   0.1656330  -0.3473482), wk =   0.0185185
        k(   70) = (  -0.5000000   0.1656330  -0.2299252), wk =   0.0370370
        k(   71) = (  -0.5000000   0.1656330  -0.1125023), wk =   0.0370370
        k(   72) = (  -0.5000000   0.1656330  -0.6996169), wk =   0.0185185
        k(   73) = (  -0.5000000   0.3312661  -0.3473482), wk =   0.0185185
        k(   74) = (  -0.5000000   0.3312661  -0.2299252), wk =   0.0370370
        k(   75) = (  -0.5000000   0.3312661  -0.1125023), wk =   0.0370370
        k(   76) = (  -0.5000000   0.3312661  -0.6996169), wk =   0.0185185
        k(   77) = (  -0.5000000  -0.4968991  -0.3473482), wk =   0.0092593
        k(   78) = (  -0.5000000  -0.4968991  -0.2299252), wk =   0.0185185
        k(   79) = (  -0.5000000  -0.4968991  -0.1125023), wk =   0.0185185
        k(   80) = (  -0.5000000  -0.4968991  -0.6996169), wk =   0.0092593

     Dense  grid:   252073 G-vectors     FFT dimensions: (  72,  72, 128)

     Smooth grid:   180385 G-vectors     FFT dimensions: (  64,  64, 108)

     Estimated max dynamical RAM per process >      28.66 MB

     Estimated total dynamical RAM >       3.91 GB

     Check: negative core charge=   -0.000002

     Initial potential from superposition of free atoms

     starting charge      71.8823, renormalised to      72.0000
     Starting wfcs are   68 randomized atomic wfcs
     Checking if some PAW data can be deallocated... 

     total cpu time spent up to now is        1.8 secs

     Self-consistent Calculation

     iteration #  1     ecut=    75.00 Ry     beta= 0.70
     Davidson diagonalization with overlap
     ethr =  1.00E-02,  avg # of iterations =  6.1

     total cpu time spent up to now is        4.0 secs

     total energy              =    -771.14282714 Ry
     estimated scf accuracy    <       1.25695608 Ry

     iteration #  2     ecut=    75.00 Ry     beta= 0.70
     Davidson diagonalization with overlap
     ethr =  1.75E-03,  avg # of iterations =  2.5

     total cpu time spent up to now is        5.7 secs

     total energy              =    -771.35720757 Ry
     estimated scf accuracy    <       0.07056436 Ry

     iteration #  3     ecut=    75.00 Ry     beta= 0.70
     Davidson diagonalization with overlap
     ethr =  9.80E-05,  avg # of iterations =  9.1

     total cpu time spent up to now is        8.5 secs

     total energy              =    -771.38092888 Ry
     estimated scf accuracy    <       0.00506586 Ry

     iteration #  4     ecut=    75.00 Ry     beta= 0.70
     Davidson diagonalization with overlap
     c_bands:  1 eigenvalues not converged
     c_bands:  1 eigenvalues not converged
     ethr =  7.04E-06,  avg # of iterations =  9.8

     total cpu time spent up to now is       11.8 secs

     total energy              =    -771.38268058 Ry
     estimated scf accuracy    <       0.00026916 Ry

     iteration #  5     ecut=    75.00 Ry     beta= 0.70
     Davidson diagonalization with overlap
     c_bands:  1 eigenvalues not converged
     ethr =  3.74E-07,  avg # of iterations =  4.7

     total cpu time spent up to now is       14.1 secs

     total energy              =    -771.38276948 Ry
     estimated scf accuracy    <       0.00001354 Ry

     iteration #  6     ecut=    75.00 Ry     beta= 0.70
     Davidson diagonalization with overlap
     ethr =  1.88E-08,  avg # of iterations =  3.8

     total cpu time spent up to now is       16.1 secs

     total energy              =    -771.38277538 Ry
     estimated scf accuracy    <       0.00000062 Ry

     iteration #  7     ecut=    75.00 Ry     beta= 0.70
     Davidson diagonalization with overlap
     ethr =  8.67E-10,  avg # of iterations =  3.8

     total cpu time spent up to now is       18.2 secs

     End of self-consistent calculation

          k = 0.0000 0.0000 0.0000 ( 22501 PWs)   bands (ev):

   -26.8785 -26.8602 -26.8541 -26.8489 -26.7275 -26.7144 -10.5900 -10.5730
   -10.4650 -10.4502 -10.4370 -10.4192 -10.4176 -10.4155 -10.4134 -10.3197
   -10.3190 -10.3126 -10.2833 -10.2041 -10.1859 -10.1804 -10.1435 -10.1284
    -3.2905  -2.8333   0.0328   0.5225   0.5266   0.5311   0.5535   0.5658
     1.7138   2.0603   2.1529   2.4562   5.5019   5.9501   7.2537   7.3082
     7.5208   8.0032   8.0170

          k = 0.0000 0.0000 0.1174 ( 22553 PWs)   bands (ev):

   -26.8774 -26.8615 -26.8537 -26.8493 -26.7265 -26.7152 -10.5846 -10.5671
   -10.4826 -10.4597 -10.4486 -10.4206 -10.4070 -10.4029 -10.3944 -10.3236
   -10.3224 -10.3165 -10.2807 -10.2099 -10.1822 -10.1774 -10.1456 -10.1329
    -3.2563  -2.8577   0.0142   0.4434   0.5241   0.5313   0.5512   0.5615
     1.8015   2.0848   2.1820   2.4267   5.6386   6.0259   7.2865   7.3320
     7.3767   7.7025   8.0801

          k = 0.0000 0.0000 0.2348 ( 22550 PWs)   bands (ev):

   -26.8742 -26.8651 -26.8528 -26.8502 -26.7239 -26.7174 -10.5689 -10.5501
   -10.5140 -10.4926 -10.4408 -10.4249 -10.3894 -10.3804 -10.3709 -10.3345
   -10.3315 -10.3293 -10.2696 -10.2265 -10.1727 -10.1689 -10.1518 -10.1438
    -3.1641  -2.9309   0.0099   0.2587   0.5284   0.5339   0.5474   0.5535
     1.9893   2.1531   2.2095   2.3488   6.0131   6.2446   6.9799   7.0711
     7.5009   7.5443   7.9457

          k = 0.0000 0.0000-0.3523 ( 22576 PWs)   bands (ev):

   -26.8697 -26.8697 -26.8515 -26.8515 -26.7205 -26.7205 -10.5444 -10.5444
   -10.5242 -10.5242 -10.4319 -10.4319 -10.3724 -10.3724 -10.3507 -10.3507
   -10.3396 -10.3396 -10.2493 -10.2493 -10.1615 -10.1615 -10.1569 -10.1569
    -3.0429  -3.0429   0.0906   0.0906   0.5334   0.5334   0.5472   0.5472
     2.1495   2.1495   2.2489   2.2489   6.5163   6.5164   6.5972   6.5973
     7.6765   7.6779   7.7880

          k = 0.0000 0.1656 0.0000 ( 22521 PWs)   bands (ev):

   -26.8763 -26.8594 -26.8549 -26.8498 -26.7273 -26.7158 -10.5868 -10.5636
   -10.4791 -10.4594 -10.4544 -10.4386 -10.4120 -10.3908 -10.3818 -10.3735
   -10.3259 -10.3108 -10.2372 -10.1993 -10.1879 -10.1832 -10.1466 -10.1336
    -3.2244  -2.8238   0.0882   0.3887   0.3918   0.5026   0.5260   0.5351
     1.8292   2.1400   2.1888   2.4684   5.7658   6.1409   7.1205   7.3300
     7.5911   7.7801   8.1773

          k = 0.0000 0.1656 0.1174 ( 22552 PWs)   bands (ev):

   -26.8752 -26.8607 -26.8545 -26.8501 -26.7264 -26.7165 -10.5809 -10.5581
   -10.4902 -10.4639 -10.4539 -10.4437 -10.3977 -10.3942 -10.3784 -10.3676
   -10.3300 -10.3163 -10.2382 -10.2058 -10.1824 -10.1790 -10.1486 -10.1365
    -3.1931  -2.8437   0.0475   0.3387   0.4132   0.4975   0.5082   0.5306
     1.9084   2.1599   2.2243   2.4433   5.8755   6.2067   7.1708   7.3724
     7.4258   7.6479   8.0115

          k = 0.0000 0.1656 0.2348 ( 22562 PWs)   bands (ev):

   -26.8723 -26.8640 -26.8536 -26.8511 -26.7242 -26.7184 -10.5644 -10.5423
   -10.5137 -10.4901 -10.4497 -10.4374 -10.3956 -10.3773 -10.3674 -10.3619
   -10.3412 -10.3304 -10.2378 -10.2184 -10.1731 -10.1680 -10.1544 -10.1442
    -3.1095  -2.9047   0.0074   0.1919   0.4466   0.4768   0.5127   0.5222
     2.0783   2.2157   2.2685   2.3787   6.1709   6.3899   7.0514   7.1276
     7.5127   7.5397   7.9521

          k = 0.0000 0.1656-0.3523 ( 22574 PWs)   bands (ev):

   -26.8682 -26.8682 -26.8523 -26.8523 -26.7212 -26.7212 -10.5404 -10.5404
   -10.5184 -10.5184 -10.4419 -10.4419 -10.3803 -10.3803 -10.3583 -10.3583
   -10.3453 -10.3453 -10.2312 -10.2312 -10.1630 -10.1630 -10.1553 -10.1553
    -3.0016  -3.0016   0.0553   0.0553   0.4653   0.4653   0.5167   0.5167
     2.2182   2.2182   2.3010   2.3010   6.5059   6.5059   6.8405   6.8405
     7.6998   7.6999   7.8138

          k = 0.0000 0.3313 0.0000 ( 22565 PWs)   bands (ev):

   -26.8706 -26.8579 -26.8575 -26.8521 -26.7261 -26.7193 -10.5742 -10.5383
   -10.5169 -10.4797 -10.4640 -10.4363 -10.4280 -10.3931 -10.3733 -10.3560
   -10.3399 -10.3197 -10.2106 -10.1944 -10.1793 -10.1755 -10.1544 -10.1449
    -3.0630  -2.8253   0.1168   0.1358   0.2304   0.4534   0.4815   0.4955
     2.0390   2.2347   2.2983   2.4737   6.3741   6.5772   6.9632   7.3296
     7.5338   7.6393   7.8897

          k = 0.0000 0.3313 0.1174 ( 22571 PWs)   bands (ev):

   -26.8698 -26.8589 -26.8570 -26.8524 -26.7256 -26.7198 -10.5679 -10.5341
   -10.5157 -10.4808 -10.4670 -10.4466 -10.4153 -10.3888 -10.3767 -10.3588
   -10.3455 -10.3269 -10.2098 -10.1980 -10.1767 -10.1702 -10.1560 -10.1443
    -3.0403  -2.8325   0.0193   0.0893   0.3052   0.4574   0.4742   0.4824
     2.1058   2.2797   2.3108   2.4598   6.3600   6.6029   7.1019   7.3599
     7.4747   7.6026   7.8769

          k = 0.0000 0.3313 0.2348 ( 22574 PWs)   bands (ev):

   -26.8676 -26.8613 -26.8560 -26.8533 -26.7243 -26.7209 -10.5518 -10.5234
   -10.5179 -10.4894 -10.4667 -10.4524 -10.4046 -10.3825 -10.3765 -10.3698
   -10.3550 -10.3430 -10.2088 -10.2034 -10.1707 -10.1600 -10.1593 -10.1454
    -2.9818  -2.8595  -0.0808  -0.0161   0.3779   0.4447   0.4665   0.4751
     2.2405   2.3333   2.3644   2.4299   6.3982   6.5968   7.3120   7.4616
     7.4941   7.6279   7.8080

          k = 0.0000 0.3313-0.3523 ( 22578 PWs)   bands (ev):

   -26.8645 -26.8645 -26.8547 -26.8547 -26.7226 -26.7226 -10.5329 -10.5329
   -10.5056 -10.5056 -10.4587 -10.4587 -10.3918 -10.3918 -10.3741 -10.3741
   -10.3554 -10.3554 -10.2072 -10.2072 -10.1643 -10.1643 -10.1507 -10.1507
    -2.9127  -2.9127  -0.0936  -0.0936   0.4183   0.4183   0.4710   0.4710
     2.3281   2.3281   2.4070   2.4070   6.5056   6.5056   7.3928   7.3930
     7.6528   7.6532   7.8701

          k = 0.0000-0.4969 0.0000 ( 22572 PWs)   bands (ev):

   -26.8636 -26.8636 -26.8548 -26.8548 -26.7233 -26.7233 -10.5502 -10.5502
   -10.5040 -10.5040 -10.4677 -10.4677 -10.3978 -10.3978 -10.3681 -10.3681
   -10.3310 -10.3310 -10.2019 -10.2019 -10.1649 -10.1649 -10.1571 -10.1571
    -2.9017  -2.9017   0.0055   0.0055   0.3819   0.3819   0.4518   0.4518
     2.1956   2.1956   2.4224   2.4224   6.8505   6.8505   6.9852   6.9852
     7.4555   7.4556   8.0161

          k = 0.0000-0.4969 0.1174 ( 22558 PWs)   bands (ev):

   -26.8632 -26.8632 -26.8553 -26.8553 -26.7233 -26.7233 -10.5453 -10.5453
   -10.5028 -10.5028 -10.4680 -10.4680 -10.3965 -10.3965 -10.3697 -10.3697
   -10.3407 -10.3407 -10.2006 -10.2006 -10.1654 -10.1654 -10.1541 -10.1541
    -2.8926  -2.8926  -0.0493  -0.0493   0.4004   0.4004   0.4471   0.4471
     2.2518   2.2518   2.4220   2.4220   6.6815   6.6815   7.1934   7.1935
     7.5684   7.5689   7.9487

          k = 0.0000-0.4969 0.2348 ( 22578 PWs)   bands (ev):

   -26.8621 -26.8621 -26.8563 -26.8563 -26.7233 -26.7233 -10.5353 -10.5353
   -10.4999 -10.4999 -10.4658 -10.4658 -10.3974 -10.3974 -10.3747 -10.3747
   -10.3570 -10.3570 -10.1995 -10.1995 -10.1649 -10.1649 -10.1492 -10.1492
    -2.8741  -2.8741  -0.1465  -0.1465   0.4185   0.4185   0.4485   0.4485
     2.3484   2.3484   2.4335   2.4335   6.5642   6.5642   7.3213   7.3213
     7.7987   7.7989   7.9111

          k = 0.0000-0.4969-0.3523 ( 22548 PWs)   bands (ev):

   -26.8614 -26.8614 -26.8571 -26.8571 -26.7233 -26.7233 -10.5305 -10.5305
   -10.4982 -10.4982 -10.4620 -10.4620 -10.4014 -10.4014 -10.3803 -10.3803
   -10.3608 -10.3608 -10.1994 -10.1994 -10.1642 -10.1642 -10.1471 -10.1471
    -2.8647  -2.8647  -0.1911  -0.1911   0.4182   0.4182   0.4565   0.4565
     2.3749   2.3749   2.4597   2.4597   6.5344   6.5344   7.2976   7.2976
     7.9139   7.9140   8.0540

          k = 0.1667 0.0000 0.1158 ( 22528 PWs)   bands (ev):

   -26.8751 -26.8607 -26.8545 -26.8500 -26.7265 -26.7166 -10.5759 -10.5643
   -10.4858 -10.4787 -10.4453 -10.4433 -10.4047 -10.3908 -10.3723 -10.3708
   -10.3298 -10.3162 -10.2344 -10.2007 -10.1912 -10.1717 -10.1531 -10.1368
    -3.1945  -2.8402   0.0396   0.3434   0.4354   0.4959   0.5123   0.5229
     1.8901   2.1399   2.2330   2.4625   5.8734   6.2259   7.1798   7.2547
     7.5171   7.5974   7.9391

          k = 0.1667 0.0000 0.2332 ( 22558 PWs)   bands (ev):

   -26.8722 -26.8640 -26.8536 -26.8510 -26.7241 -26.7186 -10.5612 -10.5496
   -10.5130 -10.4948 -10.4449 -10.4345 -10.3924 -10.3840 -10.3655 -10.3621
   -10.3384 -10.3345 -10.2331 -10.2119 -10.1816 -10.1691 -10.1514 -10.1458
    -3.1128  -2.8994   0.0062   0.1907   0.4593   0.4796   0.5150   0.5202
     2.0548   2.1854   2.2813   2.4084   6.2033   6.4041   6.9936   7.0553
     7.5234   7.5950   7.8754

          k = 0.1667 0.0000 0.3506 ( 22577 PWs)   bands (ev):

   -26.8683 -26.8680 -26.8523 -26.8523 -26.7215 -26.7212 -10.5482 -10.5404
   -10.5169 -10.5159 -10.4458 -10.4352 -10.3790 -10.3740 -10.3681 -10.3560
   -10.3485 -10.3437 -10.2274 -10.2250 -10.1764 -10.1733 -10.1506 -10.1443
    -3.0056  -2.9957   0.0562   0.0614   0.4617   0.4700   0.5080   0.5256
     2.1976   2.2437   2.2617   2.3261   6.4811   6.6254   6.7797   6.7939
     7.6563   7.7209   7.7840

          k = 0.1667 0.0000-0.2365 ( 22585 PWs)   bands (ev):

   -26.8724 -26.8638 -26.8536 -26.8510 -26.7244 -26.7184 -10.5665 -10.5443
   -10.5085 -10.4936 -10.4476 -10.4376 -10.3899 -10.3873 -10.3716 -10.3555
   -10.3384 -10.3315 -10.2328 -10.2172 -10.1817 -10.1785 -10.1495 -10.1358
    -3.1043  -2.9082   0.0149   0.2004   0.4318   0.4819   0.5031   0.5289
     2.1050   2.2391   2.2407   2.3498   6.1415   6.4321   7.0717   7.1570
     7.4751   7.5048   7.9398

          k = 0.1667 0.0000-0.1191 ( 22607 PWs)   bands (ev):

   -26.8753 -26.8606 -26.8546 -26.8500 -26.7266 -26.7165 -10.5787 -10.5616
   -10.4807 -10.4737 -10.4540 -10.4428 -10.4055 -10.3951 -10.3771 -10.3627
   -10.3286 -10.3147 -10.2345 -10.2070 -10.1898 -10.1804 -10.1490 -10.1300
    -3.1897  -2.8452   0.0593   0.3416   0.3975   0.5016   0.5090   0.5296
     1.9282   2.1706   2.2031   2.4279   5.8629   6.2372   7.2095   7.3301
     7.4547   7.6464   7.9576

          k = 0.1667 0.0000-0.0016 ( 22546 PWs)   bands (ev):

   -26.8762 -26.8594 -26.8549 -26.8497 -26.7274 -26.7159 -10.5819 -10.5691
   -10.4684 -10.4613 -10.4555 -10.4542 -10.4149 -10.3858 -10.3771 -10.3756
   -10.3256 -10.3089 -10.2343 -10.1999 -10.1943 -10.1774 -10.1509 -10.1302
    -3.2233  -2.8229   0.0880   0.3952   0.3974   0.5048   0.5218   0.5333
     1.8301   2.1350   2.1833   2.4703   5.7567   6.1650   7.1567   7.2723
     7.5981   7.8898   7.9144

          k = 0.1667 0.1656 0.1158 ( 22565 PWs)   bands (ev):

   -26.8732 -26.8600 -26.8551 -26.8508 -26.7265 -26.7179 -10.5883 -10.5381
   -10.5043 -10.4865 -10.4590 -10.4364 -10.4158 -10.3899 -10.3701 -10.3650
   -10.3208 -10.3182 -10.2208 -10.2067 -10.1939 -10.1636 -10.1573 -10.1376
    -3.1386  -2.8296   0.0729   0.2388   0.4157   0.4441   0.4864   0.5216
     1.9275   2.1597   2.2619   2.4760   6.0907   6.4196   6.9248   7.2357
     7.5588   7.6214   8.0208

          k = 0.1667 0.1656 0.2332 ( 22570 PWs)   bands (ev):

   -26.8705 -26.8630 -26.8542 -26.8517 -26.7245 -26.7197 -10.5690 -10.5302
   -10.5171 -10.4988 -10.4567 -10.4442 -10.4037 -10.3822 -10.3710 -10.3605
   -10.3363 -10.3249 -10.2214 -10.2093 -10.1867 -10.1630 -10.1528 -10.1458
    -3.0650  -2.8784   0.0117   0.1430   0.4379   0.4530   0.4619   0.4963
     2.0734   2.1936   2.3329   2.4357   6.3574   6.5909   6.9854   6.9888
     7.4843   7.6895   7.8224

          k = 0.1667 0.1656 0.3506 ( 22569 PWs)   bands (ev):

   -26.8669 -26.8667 -26.8530 -26.8529 -26.7221 -26.7219 -10.5467 -10.5415
   -10.5142 -10.5092 -10.4596 -10.4462 -10.3885 -10.3817 -10.3751 -10.3620
   -10.3374 -10.3336 -10.2191 -10.2158 -10.1766 -10.1702 -10.1529 -10.1442
    -2.9703  -2.9609   0.0330   0.0451   0.4420   0.4473   0.4673   0.4828
     2.1855   2.2221   2.3506   2.3791   6.6678   6.7305   6.8208   6.8451
     7.4717   7.5861   7.9086

          k = 0.1667 0.1656-0.2365 ( 22577 PWs)   bands (ev):

   -26.8706 -26.8628 -26.8542 -26.8517 -26.7247 -26.7195 -10.5707 -10.5272
   -10.5148 -10.4952 -10.4644 -10.4432 -10.3959 -10.3936 -10.3732 -10.3528
   -10.3352 -10.3288 -10.2189 -10.2138 -10.1836 -10.1724 -10.1513 -10.1386
    -3.0569  -2.8864   0.0281   0.1326   0.4211   0.4407   0.4625   0.5101
     2.1289   2.2107   2.3115   2.3872   6.3494   6.5812   7.0027   7.1609
     7.2859   7.7179   7.8725

          k = 0.1667 0.1656-0.1191 ( 22575 PWs)   bands (ev):

   -26.8733 -26.8599 -26.8551 -26.8508 -26.7267 -26.7178 -10.5887 -10.5376
   -10.5017 -10.4803 -10.4633 -10.4423 -10.4128 -10.3928 -10.3717 -10.3612
   -10.3223 -10.3177 -10.2199 -10.2098 -10.1928 -10.1715 -10.1521 -10.1336
    -3.1340  -2.8341   0.0975   0.2230   0.4042   0.4121   0.5029   0.5297
     1.9709   2.1779   2.2360   2.4438   6.1021   6.4159   6.9398   7.3300
     7.5532   7.5767   7.8684

          k = 0.1667 0.1656-0.0016 ( 22535 PWs)   bands (ev):

   -26.8742 -26.8588 -26.8555 -26.8505 -26.7273 -26.7172 -10.5952 -10.5414
   -10.5011 -10.4782 -10.4518 -10.4457 -10.4201 -10.3867 -10.3735 -10.3675
   -10.3180 -10.3114 -10.2203 -10.2093 -10.1942 -10.1684 -10.1558 -10.1326
    -3.1647  -2.8159   0.1397   0.2584   0.3942   0.4110   0.5303   0.5351
     1.8765   2.1525   2.2072   2.4796   6.0026   6.3579   6.8799   7.3538
     7.5325   7.6413   8.0952

          k = 0.1667 0.3313 0.1158 ( 22563 PWs)   bands (ev):

   -26.8682 -26.8582 -26.8572 -26.8528 -26.7261 -26.7210 -10.5853 -10.5365
   -10.5180 -10.4887 -10.4777 -10.4522 -10.4211 -10.3758 -10.3587 -10.3543
   -10.3295 -10.3251 -10.2216 -10.1959 -10.1854 -10.1686 -10.1513 -10.1386
    -3.0050  -2.8235   0.0644   0.0724   0.3094   0.4478   0.4598   0.5030
     2.0249   2.2020   2.3134   2.4738   6.4723   6.7585   6.8232   7.1094
     7.6420   7.7929   8.0215

          k = 0.1667 0.3313 0.2332 ( 22559 PWs)   bands (ev):

   -26.8662 -26.8605 -26.8563 -26.8536 -26.7249 -26.7220 -10.5653 -10.5331
   -10.5176 -10.4968 -10.4751 -10.4600 -10.4081 -10.3826 -10.3674 -10.3594
   -10.3425 -10.3299 -10.2094 -10.1985 -10.1815 -10.1665 -10.1483 -10.1437
    -2.9543  -2.8440  -0.0303   0.0066   0.3702   0.4365   0.4400   0.4609
     2.1423   2.2476   2.3844   2.4616   6.5227   6.7262   7.0779   7.2554
     7.6490   7.8013   7.8355

          k = 0.1667 0.3313 0.3506 ( 22570 PWs)   bands (ev):

   -26.8635 -26.8633 -26.8550 -26.8549 -26.7235 -26.7234 -10.5445 -10.5422
   -10.5110 -10.5025 -10.4763 -10.4628 -10.4008 -10.3935 -10.3729 -10.3611
   -10.3431 -10.3346 -10.2032 -10.2016 -10.1730 -10.1642 -10.1544 -10.1446
    -2.8945  -2.8880  -0.0598  -0.0409   0.3857   0.4282   0.4356   0.4514
     2.2177   2.2711   2.4121   2.4415   6.6652   6.6798   7.1845   7.3527
     7.4911   7.6331   7.7971

          k = 0.1667 0.3313-0.2365 ( 22563 PWs)   bands (ev):

   -26.8663 -26.8605 -26.8561 -26.8537 -26.7250 -26.7219 -10.5661 -10.5326
   -10.5111 -10.4925 -10.4816 -10.4610 -10.4124 -10.3812 -10.3740 -10.3534
   -10.3414 -10.3334 -10.2091 -10.1982 -10.1727 -10.1662 -10.1543 -10.1444
    -2.9483  -2.8489  -0.0201  -0.0067   0.3404   0.4258   0.4448   0.4947
     2.1883   2.2571   2.3621   2.4284   6.6025   6.8081   7.0097   7.1389
     7.4409   7.8331   7.9164

          k = 0.1667 0.3313-0.1191 ( 22532 PWs)   bands (ev):

   -26.8683 -26.8585 -26.8569 -26.8528 -26.7262 -26.7209 -10.5852 -10.5360
   -10.5156 -10.4855 -10.4763 -10.4547 -10.4286 -10.3695 -10.3628 -10.3557
   -10.3295 -10.3270 -10.2206 -10.1955 -10.1811 -10.1635 -10.1569 -10.1404
    -3.0014  -2.8261   0.0439   0.0896   0.3094   0.4174   0.4712   0.5183
     2.0651   2.2107   2.2936   2.4472   6.5660   6.7145   6.8851   6.9820
     7.6100   7.7955   7.8607

          k = 0.1667 0.3313-0.0016 ( 22542 PWs)   bands (ev):

   -26.8690 -26.8579 -26.8571 -26.8525 -26.7266 -26.7206 -10.5927 -10.5397
   -10.5174 -10.4856 -10.4722 -10.4502 -10.4341 -10.3682 -10.3626 -10.3478
   -10.3256 -10.3201 -10.2281 -10.1951 -10.1854 -10.1656 -10.1562 -10.1373
    -3.0236  -2.8194   0.0761   0.1574   0.2766   0.4190   0.5010   0.5147
     1.9822   2.1683   2.2808   2.4689   6.5398   6.6330   6.8170   6.9958
     7.6469   7.7560   7.9839

          k = 0.1667-0.4969 0.1158 ( 22560 PWs)   bands (ev):

   -26.8623 -26.8623 -26.8553 -26.8553 -26.7242 -26.7242 -10.5658 -10.5658
   -10.5083 -10.5083 -10.4668 -10.4668 -10.3933 -10.3933 -10.3495 -10.3495
   -10.3368 -10.3368 -10.2086 -10.2086 -10.1740 -10.1740 -10.1420 -10.1420
    -2.8774  -2.8774  -0.0055  -0.0055   0.3789   0.3789   0.4776   0.4776
     2.1426   2.1426   2.4095   2.4095   6.5896   6.5896   7.2369   7.2369
     7.6231   7.6232   8.1364

          k = 0.1667-0.4969 0.2332 ( 22554 PWs)   bands (ev):

   -26.8612 -26.8612 -26.8563 -26.8563 -26.7242 -26.7242 -10.5520 -10.5520
   -10.5091 -10.5091 -10.4696 -10.4696 -10.3945 -10.3945 -10.3592 -10.3592
   -10.3458 -10.3458 -10.1990 -10.1990 -10.1735 -10.1735 -10.1430 -10.1430
    -2.8607  -2.8607  -0.0766  -0.0766   0.3863   0.3863   0.4552   0.4552
     2.2334   2.2334   2.4321   2.4321   6.5960   6.5960   7.4286   7.4287
     7.5831   7.5831   8.0739

          k = 0.1667-0.4969 0.3506 ( 22554 PWs)   bands (ev):

   -26.8605 -26.8605 -26.8570 -26.8570 -26.7242 -26.7242 -10.5455 -10.5455
   -10.5007 -10.5007 -10.4782 -10.4782 -10.4007 -10.4007 -10.3619 -10.3619
   -10.3480 -10.3480 -10.1961 -10.1961 -10.1677 -10.1677 -10.1473 -10.1473
    -2.8517  -2.8517  -0.1154  -0.1154   0.3877   0.3877   0.4511   0.4511
     2.2779   2.2779   2.4421   2.4421   6.6451   6.6452   7.3669   7.3670
     7.6682   7.6691   7.8484

          k = 0.1667-0.4969-0.2365 ( 22558 PWs)   bands (ev):

   -26.8613 -26.8613 -26.8563 -26.8563 -26.7242 -26.7242 -10.5523 -10.5523
   -10.5041 -10.5041 -10.4716 -10.4716 -10.4017 -10.4017 -10.3560 -10.3560
   -10.3463 -10.3463 -10.1989 -10.1989 -10.1644 -10.1644 -10.1506 -10.1506
    -2.8598  -2.8598  -0.0827  -0.0827   0.3716   0.3716   0.4743   0.4743
     2.2569   2.2569   2.4084   2.4084   6.6771   6.6771   7.2000   7.2001
     7.6301   7.6310   8.0030

          k = 0.1667-0.4969-0.1191 ( 22556 PWs)   bands (ev):

   -26.8623 -26.8623 -26.8552 -26.8552 -26.7242 -26.7242 -10.5655 -10.5655
   -10.5057 -10.5057 -10.4668 -10.4668 -10.3994 -10.3994 -10.3471 -10.3471
   -10.3381 -10.3381 -10.2072 -10.2072 -10.1673 -10.1673 -10.1481 -10.1481
    -2.8765  -2.8765  -0.0156  -0.0156   0.3965   0.3965   0.4673   0.4673
     2.1644   2.1644   2.3892   2.3892   6.6621   6.6622   7.0566   7.0567
     7.7296   7.7299   8.1375

          k = 0.1667-0.4969-0.0016 ( 22556 PWs)   bands (ev):

   -26.8627 -26.8627 -26.8548 -26.8548 -26.7242 -26.7242 -10.5720 -10.5720
   -10.5052 -10.5052 -10.4673 -10.4673 -10.3967 -10.3967 -10.3456 -10.3456
   -10.3290 -10.3290 -10.2139 -10.2139 -10.1710 -10.1710 -10.1443 -10.1443
    -2.8852  -2.8852   0.0211   0.0211   0.4159   0.4159   0.4580   0.4580
     2.0995   2.0995   2.3950   2.3950   6.6223   6.6224   7.0764   7.0764
     7.6798   7.6802   8.1592

          k = 0.3333 0.0000 0.2316 ( 22577 PWs)   bands (ev):

   -26.8671 -26.8616 -26.8557 -26.8532 -26.7245 -26.7214 -10.5481 -10.5474
   -10.5040 -10.4993 -10.4589 -10.4543 -10.3996 -10.3807 -10.3698 -10.3697
   -10.3560 -10.3467 -10.1971 -10.1964 -10.1879 -10.1803 -10.1442 -10.1415
    -2.9869  -2.8481  -0.0876  -0.0026   0.4085   0.4336   0.4641   0.4764
     2.1983   2.2871   2.3766   2.4873   6.4183   6.5639   7.3097   7.4180
     7.5465   7.6297   7.6830

          k = 0.3333 0.0000 0.3490 ( 22570 PWs)   bands (ev):

   -26.8646 -26.8639 -26.8547 -26.8544 -26.7231 -26.7227 -10.5517 -10.5363
   -10.5039 -10.4997 -10.4630 -10.4439 -10.3874 -10.3818 -10.3808 -10.3722
   -10.3586 -10.3585 -10.1965 -10.1940 -10.1902 -10.1854 -10.1454 -10.1338
    -2.9194  -2.9001  -0.0924  -0.0800   0.4051   0.4417   0.4560   0.4831
     2.2983   2.3241   2.3728   2.4553   6.4601   6.5861   7.3585   7.3870
     7.4709   7.5034   7.8930

          k = 0.3333 0.0000 0.4664 ( 22587 PWs)   bands (ev):

   -26.8677 -26.8606 -26.8563 -26.8530 -26.7249 -26.7211 -10.5589 -10.5326
   -10.5080 -10.4945 -10.4688 -10.4423 -10.3967 -10.3918 -10.3825 -10.3637
   -10.3507 -10.3431 -10.1987 -10.1925 -10.1905 -10.1888 -10.1477 -10.1303
    -2.9705  -2.8650  -0.0589  -0.0166   0.3505   0.4519   0.4732   0.4859
     2.2799   2.2975   2.3783   2.3931   6.3666   6.7018   7.1993   7.4177
     7.5010   7.5704   7.7458

          k = 0.3333 0.0000-0.1207 ( 22562 PWs)   bands (ev):

   -26.8698 -26.8582 -26.8574 -26.8520 -26.7261 -26.7200 -10.5624 -10.5456
   -10.4978 -10.4955 -10.4777 -10.4415 -10.4138 -10.3952 -10.3784 -10.3504
   -10.3445 -10.3229 -10.2058 -10.1935 -10.1875 -10.1836 -10.1539 -10.1307
    -3.0324  -2.8343   0.0541   0.0839   0.2690   0.4525   0.4806   0.5056
     2.1320   2.2347   2.3355   2.4364   6.3393   6.7119   7.1131   7.1882
     7.4486   7.5984   7.9509

          k = 0.3333 0.0000-0.0033 ( 22538 PWs)   bands (ev):

   -26.8705 -26.8585 -26.8567 -26.8516 -26.7265 -26.7197 -10.5609 -10.5544
   -10.5005 -10.4921 -10.4780 -10.4401 -10.4292 -10.3888 -10.3727 -10.3478
   -10.3421 -10.3156 -10.2091 -10.1947 -10.1856 -10.1726 -10.1612 -10.1346
    -3.0597  -2.8221   0.1089   0.1401   0.2518   0.4576   0.4727   0.5025
     2.0347   2.2201   2.2952   2.4804   6.3363   6.6622   6.9388   7.2616
     7.4888   7.6555   7.8976

          k = 0.3333 0.0000 0.1141 ( 22564 PWs)   bands (ev):

   -26.8695 -26.8594 -26.8564 -26.8521 -26.7259 -26.7202 -10.5559 -10.5530
   -10.5001 -10.4980 -10.4702 -10.4501 -10.4188 -10.3796 -10.3710 -10.3568
   -10.3487 -10.3248 -10.2042 -10.1958 -10.1854 -10.1746 -10.1532 -10.1404
    -3.0417  -2.8245  -0.0012   0.1045   0.3513   0.4545   0.4665   0.4768
     2.0700   2.2775   2.2955   2.4972   6.3289   6.6192   7.0865   7.2866
     7.5756   7.7104   7.8148

          k = 0.3333 0.1656 0.2316 ( 22562 PWs)   bands (ev):

   -26.8659 -26.8607 -26.8560 -26.8535 -26.7250 -26.7224 -10.5668 -10.5385
   -10.5169 -10.5033 -10.4757 -10.4478 -10.4104 -10.3773 -10.3708 -10.3588
   -10.3400 -10.3332 -10.2092 -10.1902 -10.1855 -10.1748 -10.1495 -10.1379
    -2.9568  -2.8368  -0.0357   0.0161   0.3570   0.4280   0.4535   0.4809
     2.1483   2.2099   2.3948   2.4694   6.5683   6.7363   7.0584   7.2094
     7.4620   7.6665   7.8874

          k = 0.3333 0.1656 0.3490 ( 22552 PWs)   bands (ev):

   -26.8635 -26.8629 -26.8550 -26.8547 -26.7239 -26.7235 -10.5533 -10.5437
   -10.5142 -10.5072 -10.4697 -10.4515 -10.3972 -10.3931 -10.3720 -10.3643
   -10.3441 -10.3356 -10.1983 -10.1926 -10.1867 -10.1799 -10.1483 -10.1357
    -2.8981  -2.8804  -0.0570  -0.0342   0.3934   0.4218   0.4384   0.4520
     2.2175   2.2592   2.4047   2.4480   6.6541   6.7066   7.1281   7.3342
     7.4591   7.6275   7.8308

          k = 0.3333 0.1656 0.4664 ( 22553 PWs)   bands (ev):

   -26.8663 -26.8599 -26.8564 -26.8535 -26.7254 -26.7220 -10.5702 -10.5297
   -10.5159 -10.5061 -10.4744 -10.4513 -10.4079 -10.3848 -10.3701 -10.3565
   -10.3427 -10.3306 -10.2080 -10.1901 -10.1856 -10.1807 -10.1494 -10.1328
    -2.9416  -2.8521  -0.0099  -0.0022   0.3441   0.4322   0.4515   0.4760
     2.1785   2.2915   2.3229   2.4318   6.5479   6.7846   7.0004   7.2174
     7.5441   7.7899   7.9060

          k = 0.3333 0.1656-0.1207 ( 22546 PWs)   bands (ev):

   -26.8683 -26.8579 -26.8573 -26.8525 -26.7265 -26.7211 -10.5850 -10.5321
   -10.5199 -10.4934 -10.4803 -10.4495 -10.4248 -10.3759 -10.3622 -10.3517
   -10.3294 -10.3217 -10.2240 -10.1908 -10.1853 -10.1749 -10.1535 -10.1310
    -2.9966  -2.8271   0.0499   0.1066   0.2883   0.4228   0.4775   0.5180
     2.0650   2.2103   2.2853   2.4448   6.5088   6.7767   6.8625   6.9759
     7.7571   7.7647   7.8475

          k = 0.3333 0.1656-0.0033 ( 22549 PWs)   bands (ev):

   -26.8689 -26.8582 -26.8566 -26.8522 -26.7268 -26.7208 -10.5906 -10.5376
   -10.5206 -10.4883 -10.4773 -10.4507 -10.4348 -10.3677 -10.3650 -10.3431
   -10.3264 -10.3150 -10.2316 -10.1912 -10.1859 -10.1728 -10.1529 -10.1331
    -3.0213  -2.8172   0.0743   0.1585   0.2911   0.4121   0.5048   0.5179
     1.9798   2.1649   2.2735   2.4717   6.5464   6.6209   6.8423   6.9420
     7.6604   7.7828   8.0354

          k = 0.3333 0.1656 0.1141 ( 22556 PWs)   bands (ev):

   -26.8680 -26.8588 -26.8566 -26.8525 -26.7263 -26.7213 -10.5839 -10.5365
   -10.5186 -10.4998 -10.4719 -10.4514 -10.4267 -10.3698 -10.3592 -10.3541
   -10.3302 -10.3231 -10.2240 -10.1889 -10.1856 -10.1749 -10.1488 -10.1379
    -3.0054  -2.8183   0.0384   0.0935   0.3237   0.4463   0.4600   0.5102
     2.0187   2.1896   2.3113   2.4832   6.5000   6.7462   6.8087   7.0751
     7.6562   7.7338   7.9134

          k = 0.3333 0.3313 0.2316 ( 22533 PWs)   bands (ev):

   -26.8628 -26.8586 -26.8571 -26.8546 -26.7260 -26.7244 -10.5780 -10.5635
   -10.5353 -10.5045 -10.4795 -10.4407 -10.4243 -10.3927 -10.3495 -10.3429
   -10.3250 -10.3172 -10.2163 -10.1878 -10.1813 -10.1740 -10.1466 -10.1365
    -2.8888  -2.8198   0.0225   0.1111   0.2481   0.4205   0.4477   0.4720
     2.0473   2.0727   2.4125   2.4419   6.6430   6.7087   7.0188   7.4121
     7.5322   7.8471   8.0057

          k = 0.3333 0.3313 0.3490 ( 22528 PWs)   bands (ev):

   -26.8609 -26.8606 -26.8559 -26.8557 -26.7253 -26.7251 -10.5687 -10.5660
   -10.5146 -10.5089 -10.4746 -10.4648 -10.4156 -10.4130 -10.3494 -10.3461
   -10.3231 -10.3207 -10.1946 -10.1908 -10.1811 -10.1724 -10.1515 -10.1403
    -2.8526  -2.8412   0.0333   0.0438   0.3239   0.3412   0.4372   0.4459
     2.0863   2.1317   2.4165   2.4575   6.8484   6.9038   7.0100   7.1225
     7.5932   7.7515   7.8408

          k = 0.3333 0.3313 0.4664 ( 22548 PWs)   bands (ev):

   -26.8630 -26.8586 -26.8568 -26.8546 -26.7262 -26.7242 -10.5803 -10.5615
   -10.5314 -10.5026 -10.4778 -10.4432 -10.4285 -10.3984 -10.3476 -10.3402
   -10.3247 -10.3202 -10.2138 -10.1915 -10.1739 -10.1719 -10.1501 -10.1381
    -2.8785  -2.8290   0.0137   0.1201   0.2307   0.4266   0.4560   0.4689
     2.0445   2.1212   2.3642   2.4470   6.6131   6.7109   7.1051   7.3792
     7.5752   7.8498   7.9022

          k = 0.3333 0.3313-0.1207 ( 22536 PWs)   bands (ev):

   -26.8645 -26.8582 -26.8565 -26.8538 -26.7268 -26.7236 -10.5953 -10.5658
   -10.5369 -10.5135 -10.4580 -10.4441 -10.4342 -10.3625 -10.3425 -10.3355
   -10.3212 -10.3194 -10.2422 -10.2048 -10.1722 -10.1680 -10.1460 -10.1324
    -2.9154  -2.8200   0.0073   0.1673   0.2665   0.4524   0.4995   0.5214
     1.9488   2.0374   2.3191   2.4300   6.3850   6.5328   7.0950   7.3979
     7.6967   8.0322   8.1195

          k = 0.3333 0.3313-0.0033 ( 22541 PWs)   bands (ev):

   -26.8650 -26.8584 -26.8560 -26.8535 -26.7270 -26.7235 -10.6019 -10.5708
   -10.5368 -10.5143 -10.4554 -10.4514 -10.4278 -10.3408 -10.3376 -10.3331
   -10.3226 -10.3137 -10.2610 -10.2142 -10.1731 -10.1680 -10.1404 -10.1310
    -2.9328  -2.8170   0.0083   0.1485   0.3722   0.4149   0.5371   0.5447
     1.8802   1.9822   2.3088   2.4332   6.3048   6.4705   7.0599   7.3666
     7.7681   8.0026   8.1911

          k = 0.3333 0.3313 0.1141 ( 22535 PWs)   bands (ev):

   -26.8644 -26.8581 -26.8568 -26.8537 -26.7267 -26.7237 -10.5946 -10.5671
   -10.5380 -10.5163 -10.4619 -10.4432 -10.4259 -10.3591 -10.3437 -10.3371
   -10.3223 -10.3152 -10.2453 -10.2048 -10.1762 -10.1709 -10.1392 -10.1339
    -2.9216  -2.8150   0.0172   0.1773   0.2403   0.4803   0.4945   0.5133
     1.9267   2.0177   2.3431   2.4425   6.3964   6.5388   7.0355   7.3985
     7.7480   7.9726   8.1274

          k = 0.3333-0.4969 0.2316 ( 22532 PWs)   bands (ev):

   -26.8595 -26.8595 -26.8563 -26.8563 -26.7260 -26.7260 -10.5809 -10.5809
   -10.5255 -10.5255 -10.4600 -10.4600 -10.4102 -10.4102 -10.3330 -10.3330
   -10.3216 -10.3216 -10.2053 -10.2053 -10.1743 -10.1743 -10.1393 -10.1393
    -2.8324  -2.8324   0.0754   0.0754   0.3365   0.3365   0.4564   0.4564
     2.0022   2.0022   2.4245   2.4245   6.5650   6.5650   7.3258   7.3259
     7.8620   7.8624   8.1710

          k = 0.3333-0.4969 0.3490 ( 22540 PWs)   bands (ev):

   -26.8588 -26.8588 -26.8570 -26.8570 -26.7260 -26.7260 -10.5792 -10.5792
   -10.4987 -10.4987 -10.4830 -10.4830 -10.4228 -10.4228 -10.3313 -10.3313
   -10.3233 -10.3233 -10.1887 -10.1887 -10.1774 -10.1774 -10.1459 -10.1459
    -2.8251  -2.8251   0.0782   0.0782   0.3040   0.3040   0.4355   0.4355
     2.0449   2.0449   2.4426   2.4426   6.7998   6.7998   7.1205   7.1205
     7.7711   7.7712   8.0447

          k = 0.3333-0.4969 0.4664 ( 22530 PWs)   bands (ev):

   -26.8596 -26.8596 -26.8562 -26.8562 -26.7260 -26.7260 -10.5812 -10.5812
   -10.5224 -10.5224 -10.4575 -10.4575 -10.4187 -10.4187 -10.3310 -10.3310
   -10.3223 -10.3223 -10.2043 -10.2043 -10.1683 -10.1683 -10.1444 -10.1444
    -2.8315  -2.8315   0.0713   0.0713   0.3098   0.3098   0.4865   0.4865
     2.0097   2.0097   2.4162   2.4162   6.5676   6.5677   7.4084   7.4084
     7.7125   7.7130   8.0861

          k = 0.3333-0.4969-0.1207 ( 22530 PWs)   bands (ev):

   -26.8605 -26.8605 -26.8553 -26.8553 -26.7260 -26.7260 -10.5890 -10.5890
   -10.5348 -10.5348 -10.4557 -10.4557 -10.3879 -10.3879 -10.3293 -10.3293
   -10.3204 -10.3204 -10.2303 -10.2303 -10.1653 -10.1653 -10.1370 -10.1370
    -2.8451  -2.8451   0.0451   0.0451   0.4066   0.4066   0.5229   0.5229
     1.9187   1.9187   2.3794   2.3794   6.3313   6.3313   7.5247   7.5248
     7.9212   7.9215   8.1747

          k = 0.3333-0.4969-0.0033 ( 22560 PWs)   bands (ev):

   -26.8608 -26.8608 -26.8549 -26.8549 -26.7260 -26.7260 -10.5944 -10.5944
   -10.5360 -10.5360 -10.4599 -10.4599 -10.3681 -10.3681 -10.3267 -10.3267
   -10.3184 -10.3184 -10.2478 -10.2478 -10.1656 -10.1656 -10.1325 -10.1325
    -2.8521  -2.8521   0.0352   0.0352   0.4933   0.4933   0.5058   0.5058
     1.8593   1.8593   2.3696   2.3696   6.2470   6.2470   7.5350   7.5350
     7.9445   7.9446   8.3335

          k = 0.3333-0.4969 0.1141 ( 22552 PWs)   bands (ev):

   -26.8604 -26.8604 -26.8553 -26.8553 -26.7260 -26.7260 -10.5889 -10.5889
   -10.5367 -10.5367 -10.4573 -10.4573 -10.3799 -10.3799 -10.3325 -10.3325
   -10.3191 -10.3191 -10.2329 -10.2329 -10.1689 -10.1689 -10.1334 -10.1334
    -2.8459  -2.8459   0.0536   0.0536   0.4100   0.4100   0.5133   0.5133
     1.9080   1.9080   2.3889   2.3889   6.3331   6.3331   7.4999   7.5000
     7.9067   7.9069   8.3703

          k =-0.5000 0.0000-0.3473 ( 22574 PWs)   bands (ev):

   -26.8618 -26.8596 -26.8582 -26.8565 -26.7240 -26.7235 -10.5538 -10.5360
   -10.4995 -10.4929 -10.4626 -10.4404 -10.3949 -10.3941 -10.3849 -10.3751
   -10.3697 -10.3617 -10.1981 -10.1899 -10.1851 -10.1789 -10.1434 -10.1290
    -2.8725  -2.8487  -0.1942  -0.1726   0.4049   0.4359   0.4520   0.4687
     2.3360   2.3634   2.4280   2.5196   6.5093   6.5569   7.2020   7.2578
     7.7556   7.9491   8.0438

          k =-0.5000 0.0000-0.2299 ( 22540 PWs)   bands (ev):

   -26.8624 -26.8612 -26.8566 -26.8558 -26.7240 -26.7235 -10.5523 -10.5351
   -10.5047 -10.4961 -10.4699 -10.4540 -10.3959 -10.3881 -10.3808 -10.3637
   -10.3603 -10.3593 -10.1985 -10.1909 -10.1851 -10.1782 -10.1449 -10.1314
    -2.8802  -2.8597  -0.1537  -0.1250   0.3950   0.4355   0.4516   0.4652
     2.2907   2.3677   2.3876   2.4968   6.5372   6.5561   7.3323   7.3372
     7.7365   7.7536   7.8118

          k =-0.5000 0.0000-0.1125 ( 22561 PWs)   bands (ev):

   -26.8633 -26.8628 -26.8550 -26.8547 -26.7239 -26.7236 -10.5470 -10.5317
   -10.5194 -10.5095 -10.4732 -10.4666 -10.3980 -10.3913 -10.3737 -10.3629
   -10.3380 -10.3374 -10.1989 -10.1938 -10.1844 -10.1783 -10.1466 -10.1374
    -2.8941  -2.8824  -0.0618  -0.0267   0.3784   0.4383   0.4435   0.4512
     2.1992   2.2733   2.3936   2.4635   6.6468   6.6510   7.1708   7.3393
     7.5224   7.6013   7.8160

          k =-0.5000 0.0000-0.6996 ( 22530 PWs)   bands (ev):

   -26.8636 -26.8636 -26.8544 -26.8544 -26.7238 -26.7238 -10.5361 -10.5361
   -10.5233 -10.5233 -10.4708 -10.4708 -10.3971 -10.3971 -10.3662 -10.3662
   -10.3275 -10.3275 -10.1973 -10.1973 -10.1816 -10.1816 -10.1437 -10.1437
    -2.8972  -2.8972   0.0071   0.0071   0.4006   0.4006   0.4442   0.4442
     2.1814   2.1814   2.4287   2.4287   6.8391   6.8391   6.9499   6.9499
     7.5336   7.5337   7.9556

          k =-0.5000 0.1656-0.3473 ( 22548 PWs)   bands (ev):

   -26.8609 -26.8590 -26.8580 -26.8565 -26.7247 -26.7243 -10.5574 -10.5471
   -10.5140 -10.5098 -10.4674 -10.4511 -10.3996 -10.3971 -10.3675 -10.3601
   -10.3530 -10.3454 -10.1961 -10.1893 -10.1840 -10.1762 -10.1467 -10.1318
    -2.8593  -2.8379  -0.1146  -0.1053   0.3802   0.4153   0.4364   0.4549
     2.2358   2.3489   2.3617   2.4762   6.6297   6.6645   7.1032   7.4740
     7.7158   7.7176   7.8803

          k =-0.5000 0.1656-0.2299 ( 22555 PWs)   bands (ev):

   -26.8616 -26.8604 -26.8566 -26.8557 -26.7247 -26.7243 -10.5635 -10.5475
   -10.5173 -10.5047 -10.4843 -10.4435 -10.3989 -10.3920 -10.3667 -10.3519
   -10.3479 -10.3442 -10.2061 -10.1884 -10.1812 -10.1755 -10.1481 -10.1315
    -2.8663  -2.8478  -0.0868  -0.0622   0.3644   0.3972   0.4597   0.4763
     2.2216   2.2522   2.3944   2.4460   6.6036   6.6349   7.1495   7.4458
     7.5983   7.6549   7.9343

          k =-0.5000 0.1656-0.1125 ( 22534 PWs)   bands (ev):

   -26.8625 -26.8619 -26.8552 -26.8547 -26.7247 -26.7244 -10.5709 -10.5567
   -10.5147 -10.5111 -10.4789 -10.4546 -10.3993 -10.3928 -10.3523 -10.3445
   -10.3369 -10.3321 -10.2168 -10.2002 -10.1766 -10.1746 -10.1456 -10.1334
    -2.8789  -2.8684  -0.0233   0.0090   0.3718   0.4070   0.4645   0.4908
     2.1318   2.1582   2.3857   2.4152   6.5936   6.6216   7.0627   7.1900
     7.7378   7.7863   8.0315

          k =-0.5000 0.1656-0.6996 ( 22554 PWs)   bands (ev):

   -26.8627 -26.8627 -26.8545 -26.8545 -26.7246 -26.7246 -10.5689 -10.5689
   -10.5116 -10.5116 -10.4686 -10.4686 -10.3976 -10.3976 -10.3457 -10.3457
   -10.3247 -10.3247 -10.2150 -10.2150 -10.1746 -10.1746 -10.1389 -10.1389
    -2.8818  -2.8818   0.0221   0.0221   0.4254   0.4254   0.4574   0.4574
     2.0931   2.0931   2.3946   2.3946   6.6209   6.6209   7.0303   7.0304
     7.7833   7.7836   8.1194

          k =-0.5000 0.3313-0.3473 ( 22522 PWs)   bands (ev):

   -26.8590 -26.8579 -26.8576 -26.8567 -26.7262 -26.7259 -10.5816 -10.5788
   -10.5137 -10.5055 -10.4725 -10.4639 -10.4261 -10.4245 -10.3318 -10.3298
   -10.3260 -10.3220 -10.1916 -10.1874 -10.1833 -10.1747 -10.1497 -10.1381
    -2.8307  -2.8173   0.0669   0.0903   0.3033   0.3234   0.4137   0.4442
     2.0066   2.0931   2.4016   2.4676   6.7854   6.8455   6.9687   7.1767
     7.7703   7.9424   8.0109

          k =-0.5000 0.3313-0.2299 ( 22518 PWs)   bands (ev):

   -26.8599 -26.8589 -26.8567 -26.8557 -26.7262 -26.7260 -10.5832 -10.5803
   -10.5363 -10.5099 -10.4773 -10.4388 -10.4178 -10.4114 -10.3375 -10.3267
   -10.3238 -10.3208 -10.2139 -10.1979 -10.1732 -10.1709 -10.1469 -10.1339
    -2.8366  -2.8251   0.0547   0.0960   0.2980   0.3553   0.4577   0.4807
     1.9788   2.0372   2.3924   2.4382   6.5547   6.5700   7.2459   7.4408
     7.7077   8.0302   8.0620

          k =-0.5000 0.3313-0.1125 ( 22515 PWs)   bands (ev):

   -26.8608 -26.8602 -26.8555 -26.8549 -26.7262 -26.7260 -10.5907 -10.5872
   -10.5418 -10.5305 -10.4641 -10.4500 -10.3953 -10.3694 -10.3401 -10.3229
   -10.3199 -10.3188 -10.2405 -10.2260 -10.1673 -10.1669 -10.1383 -10.1298
    -2.8477  -2.8410   0.0365   0.0637   0.3923   0.4288   0.5163   0.5211
     1.9059   1.9198   2.3745   2.3890   6.3271   6.3315   7.4255   7.5414
     7.9004   8.1241   8.1800

          k =-0.5000 0.3313-0.6996 ( 22520 PWs)   bands (ev):

   -26.8608 -26.8608 -26.8548 -26.8548 -26.7261 -26.7261 -10.5939 -10.5939
   -10.5370 -10.5370 -10.4601 -10.4601 -10.3712 -10.3712 -10.3235 -10.3235
   -10.3170 -10.3170 -10.2501 -10.2501 -10.1656 -10.1656 -10.1313 -10.1313
    -2.8510  -2.8510   0.0353   0.0353   0.4922   0.4922   0.5105   0.5105
     1.8586   1.8586   2.3674   2.3674   6.2452   6.2452   7.4984   7.4985
     8.0460   8.0463   8.3061

          k =-0.5000-0.4969-0.3473 ( 22544 PWs)   bands (ev):

   -26.8578 -26.8578 -26.8570 -26.8570 -26.7269 -26.7269 -10.5949 -10.5949
   -10.4924 -10.4924 -10.4816 -10.4816 -10.4400 -10.4400 -10.3156 -10.3156
   -10.3146 -10.3146 -10.1867 -10.1867 -10.1822 -10.1822 -10.1445 -10.1445
    -2.8114  -2.8114   0.2453   0.2453   0.2693   0.2693   0.3583   0.3583
     1.9238   1.9238   2.4443   2.4443   6.8144   6.8144   6.9866   6.9867
     8.0568   8.0568   8.2900

          k =-0.5000-0.4969-0.2299 ( 22512 PWs)   bands (ev):

   -26.8587 -26.8587 -26.8562 -26.8562 -26.7269 -26.7269 -10.5951 -10.5951
   -10.5264 -10.5264 -10.4550 -10.4550 -10.4242 -10.4242 -10.3167 -10.3167
   -10.3138 -10.3138 -10.2124 -10.2124 -10.1693 -10.1693 -10.1394 -10.1394
    -2.8176  -2.8176   0.1432   0.1432   0.3672   0.3672   0.4193   0.4193
     1.8810   1.8810   2.4206   2.4206   6.4742   6.4742   7.3993   7.3993
     8.0130   8.0132   8.3851

          k =-0.5000-0.4969-0.1125 ( 22524 PWs)   bands (ev):

   -26.8595 -26.8595 -26.8553 -26.8553 -26.7269 -26.7269 -10.5993 -10.5993
   -10.5438 -10.5438 -10.4616 -10.4616 -10.3717 -10.3717 -10.3185 -10.3185
   -10.3131 -10.3131 -10.2495 -10.2495 -10.1632 -10.1632 -10.1312 -10.1312
    -2.8296  -2.8296   0.0621   0.0621   0.4804   0.4804   0.5119   0.5119
     1.7797   1.7797   2.3787   2.3787   6.2005   6.2005   7.7454   7.7455
     8.0541   8.0545   8.4150

          k =-0.5000-0.4969-0.6996 ( 22540 PWs)   bands (ev):

   -26.8598 -26.8598 -26.8550 -26.8550 -26.7269 -26.7269 -10.6033 -10.6033
   -10.5457 -10.5457 -10.4669 -10.4669 -10.3301 -10.3301 -10.3269 -10.3269
   -10.3128 -10.3128 -10.2766 -10.2766 -10.1613 -10.1613 -10.1279 -10.1279
    -2.8356  -2.8356   0.0331   0.0331   0.5414   0.5414   0.5498   0.5498
     1.7195   1.7195   2.3603   2.3603   6.1038   6.1038   7.8058   7.8059
     8.0957   8.0958   8.4629

     the Fermi energy is     4.5554 ev

!    total energy              =    -771.38277561 Ry
     estimated scf accuracy    <          9.1E-09 Ry
     smearing contrib. (-TS)   =       0.00000000 Ry
     internal energy E=F+TS    =    -771.38277561 Ry

     The total energy is F=E-TS. E is the sum of the following terms:
     one-electron contribution =    -133.94778082 Ry
     hartree contribution      =      88.42086159 Ry
     xc contribution           =     -81.53279818 Ry
     ewald contribution        =    -242.48517348 Ry
     one-center paw contrib.   =    -401.83788472 Ry

     convergence has been achieved in   7 iterations

     Forces acting on atoms (cartesian axes, Ry/au):

     atom    1 type  3   force =     0.00007110   -0.00040628   -0.00004607
     atom    2 type  3   force =    -0.00007110    0.00040628    0.00004607
     atom    3 type  3   force =    -0.00007110   -0.00040628    0.00004607
     atom    4 type  3   force =     0.00007110    0.00040628   -0.00004607
     atom    5 type  3   force =     0.00000000    0.00000000    0.00000000
     atom    6 type  3   force =     0.00000000    0.00000000    0.00000000
     atom    7 type  1   force =     0.00000000    0.00000000    0.00000000
     atom    8 type  1   force =     0.00000000    0.00000000    0.00000000
     atom    9 type  2   force =     0.00064739    0.00080348   -0.00012459
     atom   10 type  2   force =    -0.00064739   -0.00080348    0.00012459
     atom   11 type  2   force =    -0.00064739    0.00080348    0.00012459
     atom   12 type  2   force =     0.00064739   -0.00080348   -0.00012459
     atom   13 type  2   force =     0.00069855    0.00070972   -0.00023891
     atom   14 type  2   force =    -0.00069855   -0.00070972    0.00023891
     atom   15 type  2   force =    -0.00069855    0.00070972    0.00023891
     atom   16 type  2   force =     0.00069855   -0.00070972   -0.00023891
     atom   17 type  2   force =     0.00039783   -0.00001867    0.00100211
     atom   18 type  2   force =    -0.00039783    0.00001867   -0.00100211
     atom   19 type  2   force =    -0.00039783   -0.00001867   -0.00100211
     atom   20 type  2   force =     0.00039783    0.00001867    0.00100211

     Total force =     0.003722     Total SCF correction =     0.000073


     Computing stress (Cartesian axis) and pressure

          total   stress  (Ry/bohr**3)                   (kbar)     P=        6.81
   0.00004591   0.00000000  -0.00000001            6.75        0.00       -0.00
   0.00000000   0.00004552   0.00000000            0.00        6.70        0.00
  -0.00000001   0.00000000   0.00004751           -0.00        0.00        6.99


     BFGS Geometry Optimization
     Energy error            =      0.0E+00 Ry
     Gradient error          =      1.0E-03 Ry/Bohr
     Cell gradient error     =      7.0E+00 kbar

     number of scf cycles    =   1
     number of bfgs steps    =   0

     enthalpy           new  =    -771.3827756136 Ry

     new trust radius        =       0.0107724714 bohr
     new conv_thr            =       0.0000000100 Ry

     new unit-cell volume =   2063.22296 a.u.^3 (   305.73810 Ang^3 )
     density =      1.63286 g/cm^3

CELL_PARAMETERS (alat= 11.29137816)
   1.001147634   0.000000000  -0.000000171
   0.000000000   1.007385628   0.000000000
  -0.987163474   0.000000000   1.421056941

ATOMIC_POSITIONS (crystal)
K             0.7429468376        0.5280825874        0.2490408912
K             0.2570531624        0.4719174126        0.7509591088
K             0.2570531624        0.0280825874        0.2509591088
K             0.7429468376        0.9719174126        0.7490408912
K            -0.0000000000        0.0000000000        0.5000000000
K             0.0000000000        0.5000000000        0.0000000000
Al            0.5000000000        0.0000000000       -0.0000000000
Al            0.5000000000        0.5000000000        0.5000000000
H             0.6317587986        0.7391361327        0.4641215858
H             0.3682412014        0.2608638673        0.5358784142
H             0.3682412014        0.2391361327        0.0358784142
H             0.6317587986        0.7608638673        0.9641215858
H             0.7081053202        0.1718737000        0.9707812699
H             0.2918946798        0.8281263000        0.0292187301
H             0.2918946798        0.6718737000        0.5292187301
H             0.7081053202        0.3281263000        0.4707812699
H             0.7630975252        0.5194870676        0.7037813089
H             0.2369024748        0.4805129324        0.2962186911
H             0.2369024748        0.0194870676        0.7962186911
H             0.7630975252        0.9805129324        0.2037813089



     Writing config-only to output data dir ./k3alh6.save/
     NEW-OLD atomic charge density approx. for the potential

     Check: negative core charge=   -0.000002
     extrapolated charge   72.24911, renormalised to   72.00000

     total cpu time spent up to now is       20.3 secs

     Self-consistent Calculation

     iteration #  1     ecut=    75.00 Ry     beta= 0.70
     Davidson diagonalization with overlap
     ethr =  1.00E-06,  avg # of iterations =  3.4

     total cpu time spent up to now is       22.6 secs

     total energy              =    -771.38199708 Ry
     estimated scf accuracy    <       0.00058245 Ry

     iteration #  2     ecut=    75.00 Ry     beta= 0.70
     Davidson diagonalization with overlap
     ethr =  8.09E-07,  avg # of iterations =  3.0

     total cpu time spent up to now is       24.6 secs

     total energy              =    -771.38312037 Ry
     estimated scf accuracy    <       0.00093215 Ry

     iteration #  3     ecut=    75.00 Ry     beta= 0.70
     Davidson diagonalization with overlap
     ethr =  8.09E-07,  avg # of iterations =  2.0

     total cpu time spent up to now is       26.1 secs

     total energy              =    -771.38310645 Ry
     estimated scf accuracy    <       0.00019321 Ry

     iteration #  4     ecut=    75.00 Ry     beta= 0.70
     Davidson diagonalization with overlap
     ethr =  2.68E-07,  avg # of iterations =  1.1

     total cpu time spent up to now is       27.5 secs

     total energy              =    -771.38307453 Ry
     estimated scf accuracy    <       0.00006215 Ry

     iteration #  5     ecut=    75.00 Ry     beta= 0.70
     Davidson diagonalization with overlap
     ethr =  8.63E-08,  avg # of iterations =  2.1

     total cpu time spent up to now is       29.4 secs

     total energy              =    -771.38308879 Ry
     estimated scf accuracy    <       0.00000019 Ry

     iteration #  6     ecut=    75.00 Ry     beta= 0.70
     Davidson diagonalization with overlap
     ethr =  2.65E-10,  avg # of iterations =  6.5

     total cpu time spent up to now is       32.2 secs

     total energy              =    -771.38308976 Ry
     estimated scf accuracy    <       0.00000038 Ry

     iteration #  7     ecut=    75.00 Ry     beta= 0.70
     Davidson diagonalization with overlap
     ethr =  2.65E-10,  avg # of iterations =  2.0

     total cpu time spent up to now is       34.0 secs

     total energy              =    -771.38308924 Ry
     estimated scf accuracy    <       0.00000077 Ry

     iteration #  8     ecut=    75.00 Ry     beta= 0.70
     Davidson diagonalization with overlap
     ethr =  2.65E-10,  avg # of iterations =  2.0

     total cpu time spent up to now is       35.8 secs

     total energy              =    -771.38308935 Ry
     estimated scf accuracy    <       0.00000002 Ry

     iteration #  9     ecut=    75.00 Ry     beta= 0.70
     Davidson diagonalization with overlap
     ethr =  3.16E-11,  avg # of iterations =  3.5

     total cpu time spent up to now is       37.8 secs

     End of self-consistent calculation

          k = 0.0000 0.0000 0.0000 ( 22501 PWs)   bands (ev):

   -26.9050 -26.8871 -26.8811 -26.8761 -26.7531 -26.7404 -10.6133 -10.5965
   -10.4902 -10.4750 -10.4619 -10.4451 -10.4435 -10.4406 -10.4394 -10.3466
   -10.3460 -10.3393 -10.3087 -10.2305 -10.2127 -10.2074 -10.1706 -10.1557
    -3.3012  -2.8463   0.0160   0.5048   0.5090   0.5134   0.5347   0.5467
     1.6919   2.0397   2.1321   2.4337   5.4661   5.9278   7.2261   7.2816
     7.4935   7.9646   7.9923

          k = 0.0000 0.0000 0.1173 ( 22553 PWs)   bands (ev):

   -26.9039 -26.8884 -26.8808 -26.8764 -26.7522 -26.7412 -10.6080 -10.5907
   -10.5073 -10.4846 -10.4738 -10.4458 -10.4331 -10.4289 -10.4203 -10.3505
   -10.3494 -10.3433 -10.3059 -10.2362 -10.2090 -10.2044 -10.1727 -10.1602
    -3.2672  -2.8706  -0.0023   0.4263   0.5063   0.5135   0.5323   0.5425
     1.7793   2.0641   2.1607   2.4044   5.6024   6.0033   7.2576   7.3056
     7.3499   7.6657   8.0542

          k = 0.0000 0.0000 0.2346 ( 22550 PWs)   bands (ev):

   -26.9008 -26.8919 -26.8799 -26.8774 -26.7496 -26.7433 -10.5925 -10.5739
   -10.5383 -10.5171 -10.4661 -10.4501 -10.4157 -10.4066 -10.3971 -10.3612
   -10.3583 -10.3561 -10.2948 -10.2525 -10.1996 -10.1959 -10.1789 -10.1710
    -3.1756  -2.9436  -0.0061   0.2423   0.5103   0.5158   0.5288   0.5348
     1.9667   2.1320   2.1874   2.3269   5.9761   6.2212   6.9543   7.0333
     7.4739   7.5168   7.9183

          k =-0.0000 0.0000-0.3519 ( 22576 PWs)   bands (ev):

   -26.8964 -26.8964 -26.8786 -26.8786 -26.7464 -26.7464 -10.5683 -10.5683
   -10.5483 -10.5483 -10.4571 -10.4571 -10.3989 -10.3989 -10.3772 -10.3772
   -10.3663 -10.3663 -10.2749 -10.2749 -10.1884 -10.1884 -10.1840 -10.1840
    -3.0551  -3.0551   0.0747   0.0747   0.5151   0.5151   0.5289   0.5289
     2.1268   2.1268   2.2275   2.2275   6.4807   6.4807   6.5706   6.5706
     7.6490   7.6501   7.7612

          k = 0.0000 0.1654 0.0000 ( 22521 PWs)   bands (ev):

   -26.9028 -26.8864 -26.8820 -26.8770 -26.7529 -26.7418 -10.6102 -10.5873
   -10.5037 -10.4843 -10.4797 -10.4636 -10.4380 -10.4168 -10.4079 -10.3992
   -10.3528 -10.3379 -10.2635 -10.2258 -10.2147 -10.2100 -10.1737 -10.1610
    -3.2355  -2.8368   0.0712   0.3700   0.3745   0.4853   0.5084   0.5164
     1.8074   2.1186   2.1676   2.4455   5.7294   6.1178   7.0937   7.3037
     7.5640   7.7510   8.1425

          k = 0.0000 0.1654 0.1173 ( 22552 PWs)   bands (ev):

   -26.9018 -26.8876 -26.8816 -26.8773 -26.7521 -26.7424 -10.6044 -10.5818
   -10.5148 -10.4887 -10.4790 -10.4690 -10.4237 -10.4202 -10.4044 -10.3936
   -10.3569 -10.3433 -10.2643 -10.2321 -10.2093 -10.2058 -10.1757 -10.1638
    -3.2044  -2.8566   0.0307   0.3212   0.3947   0.4802   0.4908   0.5120
     1.8862   2.1384   2.2027   2.4205   5.8390   6.1833   7.1435   7.3456
     7.3982   7.6140   7.9842

          k = 0.0000 0.1654 0.2346 ( 22562 PWs)   bands (ev):

   -26.8990 -26.8908 -26.8807 -26.8782 -26.7499 -26.7443 -10.5880 -10.5662
   -10.5379 -10.5146 -10.4747 -10.4626 -10.4217 -10.4036 -10.3939 -10.3880
   -10.3679 -10.3572 -10.2638 -10.2446 -10.2001 -10.1950 -10.1814 -10.1714
    -3.1213  -2.9175  -0.0090   0.1749   0.4285   0.4595   0.4950   0.5038
     2.0557   2.1938   2.2462   2.3562   6.1345   6.3651   7.0233   7.0937
     7.4850   7.5129   7.9242

          k =-0.0000 0.1654-0.3519 ( 22574 PWs)   bands (ev):

   -26.8950 -26.8950 -26.8794 -26.8794 -26.7470 -26.7470 -10.5643 -10.5643
   -10.5426 -10.5426 -10.4669 -10.4669 -10.4066 -10.4066 -10.3848 -10.3848
   -10.3719 -10.3719 -10.2571 -10.2571 -10.1900 -10.1900 -10.1824 -10.1824
    -3.0139  -3.0139   0.0388   0.0388   0.4476   0.4476   0.4987   0.4987
     2.1955   2.1955   2.2787   2.2787   6.4734   6.4734   6.8108   6.8108
     7.6722   7.6723   7.7866

          k = 0.0000 0.3309 0.0000 ( 22565 PWs)   bands (ev):

   -26.8973 -26.8849 -26.8845 -26.8792 -26.7518 -26.7452 -10.5977 -10.5622
   -10.5411 -10.5043 -10.4887 -10.4612 -10.4538 -10.4192 -10.3996 -10.3825
   -10.3666 -10.3466 -10.2370 -10.2210 -10.2062 -10.2023 -10.1814 -10.1722
    -3.0750  -2.8383   0.0989   0.1187   0.2129   0.4364   0.4637   0.4776
     2.0169   2.2129   2.2755   2.4501   6.3370   6.5514   6.9369   7.3030
     7.5055   7.6130   7.8559

          k = 0.0000 0.3309 0.1173 ( 22571 PWs)   bands (ev):

   -26.8965 -26.8859 -26.8840 -26.8795 -26.7513 -26.7456 -10.5915 -10.5581
   -10.5398 -10.5053 -10.4916 -10.4716 -10.4411 -10.4149 -10.4031 -10.3853
   -10.3722 -10.3538 -10.2362 -10.2245 -10.2036 -10.1971 -10.1830 -10.1716
    -3.0524  -2.8455   0.0018   0.0722   0.2877   0.4404   0.4565   0.4649
     2.0833   2.2575   2.2880   2.4362   6.3249   6.5755   7.0742   7.3317
     7.4465   7.5756   7.8501

          k = 0.0000 0.3309 0.2346 ( 22574 PWs)   bands (ev):

   -26.8943 -26.8882 -26.8830 -26.8804 -26.7500 -26.7468 -10.5755 -10.5475
   -10.5420 -10.5139 -10.4913 -10.4773 -10.4306 -10.4088 -10.4028 -10.3962
   -10.3815 -10.3697 -10.2352 -10.2299 -10.1977 -10.1871 -10.1863 -10.1726
    -2.9942  -2.8725  -0.0979  -0.0332   0.3608   0.4276   0.4491   0.4578
     2.2175   2.3102   2.3413   2.4065   6.3650   6.5669   7.2824   7.4337
     7.4651   7.6007   7.7772

          k =-0.0000 0.3309-0.3519 ( 22578 PWs)   bands (ev):

   -26.8913 -26.8913 -26.8817 -26.8817 -26.7484 -26.7484 -10.5568 -10.5568
   -10.5299 -10.5299 -10.4834 -10.4834 -10.4180 -10.4180 -10.4005 -10.4005
   -10.3818 -10.3818 -10.2337 -10.2337 -10.1913 -10.1913 -10.1778 -10.1778
    -2.9255  -2.9255  -0.1105  -0.1105   0.4014   0.4014   0.4537   0.4537
     2.3049   2.3049   2.3836   2.3836   6.4736   6.4736   7.3642   7.3642
     7.6232   7.6234   7.8424

          k = 0.0000-0.4963 0.0000 ( 22572 PWs)   bands (ev):

   -26.8905 -26.8905 -26.8819 -26.8819 -26.7491 -26.7491 -10.5740 -10.5740
   -10.5283 -10.5283 -10.4923 -10.4923 -10.4239 -10.4239 -10.3945 -10.3945
   -10.3578 -10.3578 -10.2283 -10.2283 -10.1918 -10.1918 -10.1842 -10.1842
    -2.9144  -2.9144  -0.0116  -0.0116   0.3641   0.3641   0.4345   0.4345
     2.1734   2.1734   2.3987   2.3987   6.8170   6.8170   6.9586   6.9586
     7.4276   7.4276   7.9896

          k = 0.0000-0.4963 0.1173 ( 22558 PWs)   bands (ev):

   -26.8900 -26.8900 -26.8823 -26.8823 -26.7491 -26.7491 -10.5691 -10.5691
   -10.5270 -10.5270 -10.4926 -10.4926 -10.4227 -10.4227 -10.3961 -10.3961
   -10.3673 -10.3673 -10.2271 -10.2271 -10.1923 -10.1923 -10.1812 -10.1812
    -2.9055  -2.9055  -0.0664  -0.0664   0.3829   0.3829   0.4299   0.4299
     2.2291   2.2291   2.3983   2.3983   6.6497   6.6497   7.1658   7.1658
     7.5396   7.5397   7.9220

          k = 0.0000-0.4963 0.2346 ( 22578 PWs)   bands (ev):

   -26.8890 -26.8890 -26.8834 -26.8834 -26.7490 -26.7490 -10.5592 -10.5592
   -10.5242 -10.5242 -10.4903 -10.4903 -10.4236 -10.4236 -10.4011 -10.4011
   -10.3834 -10.3834 -10.2260 -10.2260 -10.1918 -10.1918 -10.1764 -10.1764
    -2.8871  -2.8871  -0.1635  -0.1635   0.4015   0.4015   0.4315   0.4315
     2.3250   2.3250   2.4098   2.4098   6.5321   6.5321   7.2940   7.2940
     7.7701   7.7706   7.8816

          k =-0.0000-0.4963-0.3519 ( 22548 PWs)   bands (ev):

   -26.8883 -26.8883 -26.8841 -26.8841 -26.7490 -26.7490 -10.5544 -10.5544
   -10.5225 -10.5225 -10.4865 -10.4865 -10.4276 -10.4276 -10.4067 -10.4067
   -10.3872 -10.3872 -10.2259 -10.2259 -10.1912 -10.1912 -10.1743 -10.1743
    -2.8778  -2.8778  -0.2080  -0.2080   0.4013   0.4013   0.4395   0.4395
     2.3512   2.3512   2.4359   2.4359   6.5019   6.5019   7.2703   7.2703
     7.8877   7.8878   8.0270

          k = 0.1665 0.0000 0.1156 ( 22528 PWs)   bands (ev):

   -26.9017 -26.8877 -26.8816 -26.8772 -26.7521 -26.7426 -10.5994 -10.5879
   -10.5104 -10.5034 -10.4706 -10.4683 -10.4306 -10.4168 -10.3987 -10.3966
   -10.3567 -10.3433 -10.2606 -10.2272 -10.2179 -10.1987 -10.1801 -10.1641
    -3.2058  -2.8531   0.0227   0.3260   0.4171   0.4782   0.4948   0.5047
     1.8678   2.1185   2.2114   2.4397   5.8368   6.2026   7.1536   7.2245
     7.4902   7.5651   7.9133

          k = 0.1665 0.0000 0.2329 ( 22558 PWs)   bands (ev):

   -26.8988 -26.8909 -26.8806 -26.8781 -26.7499 -26.7445 -10.5849 -10.5734
   -10.5372 -10.5192 -10.4701 -10.4595 -10.4186 -10.4102 -10.3919 -10.3882
   -10.3651 -10.3613 -10.2592 -10.2382 -10.2084 -10.1960 -10.1786 -10.1730
    -3.1245  -2.9122  -0.0103   0.1739   0.4414   0.4620   0.4968   0.5025
     2.0320   2.1637   2.2589   2.3860   6.1662   6.3798   6.9585   7.0292
     7.4964   7.5677   7.8473

          k = 0.1665 0.0000 0.3502 ( 22577 PWs)   bands (ev):

   -26.8950 -26.8948 -26.8794 -26.8794 -26.7473 -26.7470 -10.5720 -10.5644
   -10.5410 -10.5400 -10.4709 -10.4603 -10.4054 -10.4004 -10.3943 -10.3824
   -10.3751 -10.3703 -10.2535 -10.2511 -10.2033 -10.2002 -10.1777 -10.1715
    -3.0180  -3.0080   0.0399   0.0449   0.4438   0.4525   0.4900   0.5077
     2.1747   2.2207   2.2397   2.3041   6.4476   6.5920   6.7505   6.7662
     7.6284   7.6917   7.7571

          k = 0.1665 0.0000-0.2362 ( 22585 PWs)   bands (ev):

   -26.8990 -26.8906 -26.8807 -26.8781 -26.7501 -26.7443 -10.5901 -10.5681
   -10.5328 -10.5181 -10.4725 -10.4629 -10.4161 -10.4135 -10.3975 -10.3820
   -10.3651 -10.3583 -10.2589 -10.2434 -10.2085 -10.2053 -10.1767 -10.1631
    -3.1161  -2.9209  -0.0015   0.1833   0.4135   0.4647   0.4854   0.5107
     2.0821   2.2175   2.2182   2.3274   6.1052   6.4081   7.0455   7.1197
     7.4482   7.4774   7.9121

          k = 0.1665 0.0000-0.1189 ( 22607 PWs)   bands (ev):

   -26.9018 -26.8875 -26.8816 -26.8772 -26.7523 -26.7425 -10.6022 -10.5852
   -10.5054 -10.4984 -10.4790 -10.4681 -10.4315 -10.4212 -10.4027 -10.3890
   -10.3555 -10.3418 -10.2607 -10.2333 -10.2164 -10.2072 -10.1761 -10.1574
    -3.2010  -2.8582   0.0425   0.3241   0.3789   0.4841   0.4917   0.5112
     1.9058   2.1493   2.1815   2.4052   5.8265   6.2139   7.1830   7.3024
     7.4285   7.6106   7.9312

          k = 0.1665 0.0000-0.0016 ( 22546 PWs)   bands (ev):

   -26.9028 -26.8864 -26.8819 -26.8768 -26.7530 -26.7419 -10.6054 -10.5926
   -10.4932 -10.4859 -10.4804 -10.4796 -10.4408 -10.4119 -10.4026 -10.4017
   -10.3525 -10.3360 -10.2606 -10.2264 -10.2209 -10.2044 -10.1779 -10.1575
    -3.2345  -2.8359   0.0710   0.3778   0.3787   0.4874   0.5032   0.5157
     1.8081   2.1137   2.1621   2.4474   5.7204   6.1420   7.1306   7.2448
     7.5709   7.8646   7.8806

          k = 0.1665 0.1654 0.1156 ( 22565 PWs)   bands (ev):

   -26.8998 -26.8869 -26.8822 -26.8779 -26.7522 -26.7438 -10.6116 -10.5620
   -10.5285 -10.5111 -10.4840 -10.4616 -10.4414 -10.4159 -10.3964 -10.3914
   -10.3478 -10.3451 -10.2471 -10.2331 -10.2205 -10.1906 -10.1843 -10.1648
    -3.1502  -2.8426   0.0558   0.2220   0.3973   0.4259   0.4691   0.5036
     1.9055   2.1380   2.2400   2.4528   6.0541   6.3953   6.8989   7.2056
     7.5320   7.5941   7.9903

          k = 0.1665 0.1654 0.2329 ( 22570 PWs)   bands (ev):

   -26.8972 -26.8899 -26.8813 -26.8788 -26.7502 -26.7455 -10.5926 -10.5542
   -10.5412 -10.5232 -10.4816 -10.4691 -10.4298 -10.4083 -10.3973 -10.3871
   -10.3630 -10.3518 -10.2476 -10.2356 -10.2134 -10.1899 -10.1800 -10.1730
    -3.0770  -2.8913  -0.0051   0.1261   0.4200   0.4355   0.4443   0.4783
     2.0510   2.1717   2.3101   2.4127   6.3211   6.5656   6.9532   6.9611
     7.4572   7.6623   7.7946

          k = 0.1665 0.1654 0.3502 ( 22569 PWs)   bands (ev):

   -26.8937 -26.8935 -26.8801 -26.8800 -26.7479 -26.7477 -10.5706 -10.5654
   -10.5384 -10.5334 -10.4845 -10.4710 -10.4148 -10.4080 -10.4015 -10.3884
   -10.3642 -10.3604 -10.2453 -10.2420 -10.2034 -10.1970 -10.1800 -10.1714
    -2.9828  -2.9734   0.0163   0.0285   0.4246   0.4301   0.4494   0.4645
     2.1633   2.1998   2.3273   2.3560   6.6322   6.6961   6.7952   6.8170
     7.4443   7.5589   7.8811

          k = 0.1665 0.1654-0.2362 ( 22577 PWs)   bands (ev):

   -26.8973 -26.8897 -26.8813 -26.8788 -26.7504 -26.7453 -10.5943 -10.5512
   -10.5391 -10.5197 -10.4892 -10.4683 -10.4218 -10.4198 -10.3996 -10.3793
   -10.3619 -10.3557 -10.2452 -10.2400 -10.2103 -10.1993 -10.1785 -10.1659
    -3.0690  -2.8993   0.0115   0.1156   0.4031   0.4230   0.4454   0.4919
     2.1065   2.1889   2.2887   2.3641   6.3127   6.5567   6.9764   7.1252
     7.2595   7.6898   7.8429

          k = 0.1665 0.1654-0.1189 ( 22575 PWs)   bands (ev):

   -26.8999 -26.8868 -26.8822 -26.8779 -26.7523 -26.7437 -10.6121 -10.5614
   -10.5261 -10.5050 -10.4882 -10.4676 -10.4383 -10.4188 -10.3980 -10.3876
   -10.3492 -10.3447 -10.2461 -10.2362 -10.2194 -10.1985 -10.1792 -10.1609
    -3.1456  -2.8471   0.0804   0.2062   0.3859   0.3939   0.4856   0.5116
     1.9488   2.1564   2.2140   2.4206   6.0653   6.3920   6.9138   7.3031
     7.5220   7.5498   7.8363

          k = 0.1665 0.1654-0.0016 ( 22535 PWs)   bands (ev):

   -26.9008 -26.8858 -26.8825 -26.8776 -26.7530 -26.7432 -10.6185 -10.5652
   -10.5255 -10.5029 -10.4772 -10.4707 -10.4454 -10.4127 -10.3998 -10.3938
   -10.3450 -10.3384 -10.2467 -10.2358 -10.2207 -10.1954 -10.1828 -10.1599
    -3.1762  -2.8289   0.1225   0.2418   0.3757   0.3925   0.5124   0.5172
     1.8547   2.1308   2.1859   2.4564   5.9660   6.3340   6.8541   7.3271
     7.5056   7.6140   8.0564

          k = 0.1665 0.3309 0.1156 ( 22563 PWs)   bands (ev):

   -26.8949 -26.8852 -26.8843 -26.8799 -26.7517 -26.7468 -10.6087 -10.5604
   -10.5422 -10.5132 -10.5023 -10.4771 -10.4468 -10.4021 -10.3853 -10.3809
   -10.3564 -10.3520 -10.2478 -10.2224 -10.2122 -10.1955 -10.1784 -10.1658
    -3.0173  -2.8366   0.0478   0.0548   0.2917   0.4300   0.4421   0.4852
     2.0028   2.1791   2.2913   2.4502   6.4409   6.7298   6.7941   7.0832
     7.6138   7.7643   7.9918

          k = 0.1665 0.3309 0.2329 ( 22559 PWs)   bands (ev):

   -26.8930 -26.8874 -26.8833 -26.8807 -26.7506 -26.7478 -10.5889 -10.5570
   -10.5418 -10.5212 -10.4997 -10.4847 -10.4341 -10.4088 -10.3937 -10.3860
   -10.3692 -10.3567 -10.2357 -10.2249 -10.2083 -10.1935 -10.1755 -10.1709
    -2.9668  -2.8571  -0.0476  -0.0103   0.3525   0.4190   0.4228   0.4435
     2.1197   2.2248   2.3614   2.4380   6.4911   6.6964   7.0484   7.2280
     7.6204   7.7732   7.8075

          k = 0.1665 0.3309 0.3502 ( 22570 PWs)   bands (ev):

   -26.8903 -26.8902 -26.8820 -26.8819 -26.7493 -26.7491 -10.5683 -10.5660
   -10.5353 -10.5268 -10.5008 -10.4874 -10.4270 -10.4196 -10.3993 -10.3875
   -10.3698 -10.3613 -10.2296 -10.2280 -10.1999 -10.1912 -10.1815 -10.1718
    -2.9073  -2.9009  -0.0769  -0.0580   0.3682   0.4109   0.4184   0.4341
     2.1951   2.2483   2.3884   2.4178   6.6336   6.6482   7.1563   7.3226
     7.4635   7.6060   7.7693

          k = 0.1665 0.3309-0.2362 ( 22563 PWs)   bands (ev):

   -26.8930 -26.8874 -26.8831 -26.8808 -26.7507 -26.7477 -10.5897 -10.5566
   -10.5352 -10.5169 -10.5061 -10.4858 -10.4383 -10.4075 -10.4004 -10.3800
   -10.3680 -10.3602 -10.2355 -10.2247 -10.1996 -10.1931 -10.1814 -10.1716
    -2.9609  -2.8619  -0.0371  -0.0239   0.3230   0.4088   0.4274   0.4769
     2.1658   2.2345   2.3389   2.4047   6.5702   6.7774   6.9817   7.1111
     7.4135   7.8040   7.8859

          k = 0.1665 0.3309-0.1189 ( 22532 PWs)   bands (ev):

   -26.8950 -26.8855 -26.8839 -26.8799 -26.7518 -26.7467 -10.6086 -10.5599
   -10.5397 -10.5100 -10.5008 -10.4797 -10.4544 -10.3959 -10.3892 -10.3822
   -10.3563 -10.3539 -10.2468 -10.2220 -10.2079 -10.1904 -10.1840 -10.1676
    -3.0137  -2.8391   0.0272   0.0719   0.2919   0.3996   0.4536   0.5004
     2.0429   2.1879   2.2715   2.4236   6.5332   6.6863   6.8572   6.9553
     7.5825   7.7677   7.8280

          k = 0.1665 0.3309-0.0016 ( 22542 PWs)   bands (ev):

   -26.8957 -26.8849 -26.8841 -26.8796 -26.7522 -26.7464 -10.6160 -10.5637
   -10.5416 -10.5101 -10.4967 -10.4753 -10.4597 -10.3946 -10.3890 -10.3744
   -10.3525 -10.3470 -10.2542 -10.2216 -10.2121 -10.1925 -10.1833 -10.1645
    -3.0357  -2.8324   0.0598   0.1396   0.2589   0.4010   0.4831   0.4966
     1.9604   2.1456   2.2590   2.4453   6.5075   6.6038   6.7903   6.9697
     7.6196   7.7264   7.9504

          k = 0.1665-0.4963 0.1156 ( 22560 PWs)   bands (ev):

   -26.8892 -26.8892 -26.8823 -26.8823 -26.7499 -26.7499 -10.5894 -10.5894
   -10.5325 -10.5325 -10.4916 -10.4916 -10.4193 -10.4193 -10.3761 -10.3761
   -10.3636 -10.3636 -10.2350 -10.2350 -10.2009 -10.2009 -10.1692 -10.1692
    -2.8903  -2.8903  -0.0226  -0.0226   0.3614   0.3614   0.4598   0.4598
     2.1198   2.1198   2.3865   2.3865   6.5625   6.5625   7.2035   7.2035
     7.5959   7.5960   8.1089

          k = 0.1665-0.4963 0.2329 ( 22554 PWs)   bands (ev):

   -26.8882 -26.8882 -26.8834 -26.8834 -26.7499 -26.7499 -10.5757 -10.5757
   -10.5334 -10.5334 -10.4942 -10.4942 -10.4205 -10.4205 -10.3857 -10.3857
   -10.3724 -10.3724 -10.2256 -10.2256 -10.2004 -10.2004 -10.1702 -10.1702
    -2.8737  -2.8737  -0.0938  -0.0938   0.3690   0.3690   0.4378   0.4378
     2.2102   2.2102   2.4087   2.4087   6.5662   6.5662   7.3990   7.3990
     7.5548   7.5548   8.0457

          k = 0.1665-0.4963 0.3502 ( 22554 PWs)   bands (ev):

[...]
    -3.0596  -2.9742  -0.1401  -0.1334   0.2050   0.2963   0.3137   0.3372
     2.0225   2.1360   2.1593   2.2654   6.3038   6.5614   6.7861   7.0069
     7.3139   7.5696   7.6833

          k = 0.3304 0.1642-0.1196 ( 23183 PWs)   bands (ev):

   -27.0803 -27.0714 -27.0708 -27.0666 -26.9451 -26.9405 -10.7749 -10.7268
   -10.7147 -10.6912 -10.6788 -10.6513 -10.6284 -10.5838 -10.5719 -10.5613
   -10.5417 -10.5345 -10.4408 -10.4106 -10.4054 -10.3956 -10.3768 -10.3560
    -3.1115  -2.9496  -0.0781  -0.0301   0.1498   0.2834   0.3371   0.3755
     1.9125   2.0519   2.1331   2.2800   6.2601   6.5617   6.6495   6.7750
     7.5308   7.5507   7.6240

          k = 0.3304 0.1642-0.0033 ( 23161 PWs)   bands (ev):

   -27.0808 -27.0716 -27.0702 -27.0663 -26.9454 -26.9403 -10.7799 -10.7318
   -10.7156 -10.6864 -10.6760 -10.6524 -10.6376 -10.5765 -10.5739 -10.5543
   -10.5389 -10.5285 -10.4475 -10.4110 -10.4060 -10.3936 -10.3763 -10.3580
    -3.1348  -2.9399  -0.0526   0.0210   0.1510   0.2702   0.3622   0.3740
     1.8307   2.0084   2.1235   2.3071   6.2687   6.4323   6.6398   6.7386
     7.4494   7.5599   7.7969

          k = 0.3304 0.1642 0.1131 ( 23126 PWs)   bands (ev):

   -27.0801 -27.0721 -27.0702 -27.0666 -26.9449 -26.9407 -10.7740 -10.7306
   -10.7138 -10.6969 -10.6713 -10.6524 -10.6305 -10.5783 -10.5687 -10.5645
   -10.5421 -10.5359 -10.4406 -10.4090 -10.4055 -10.3956 -10.3724 -10.3623
    -3.1197  -2.9413  -0.0926  -0.0392   0.1844   0.3041   0.3207   0.3684
     1.8668   2.0316   2.1585   2.3185   6.2445   6.5419   6.5903   6.8693
     7.4430   7.5175   7.6893

          k = 0.3303 0.3284 0.2294 ( 23159 PWs)   bands (ev):

   -27.0756 -27.0719 -27.0706 -27.0684 -26.9447 -26.9434 -10.7687 -10.7552
   -10.7288 -10.7012 -10.6786 -10.6421 -10.6278 -10.5990 -10.5605 -10.5540
   -10.5374 -10.5304 -10.4340 -10.4081 -10.4017 -10.3950 -10.3703 -10.3610
    -3.0085  -2.9426  -0.1070  -0.0244   0.1080   0.2770   0.3083   0.3326
     1.8954   1.9180   2.2524   2.2773   6.4516   6.5038   6.7545   7.1855
     7.3313   7.6176   7.7804

          k = 0.3303 0.3284 0.3457 ( 23157 PWs)   bands (ev):

   -27.0739 -27.0737 -27.0696 -27.0694 -26.9441 -26.9439 -10.7598 -10.7575
   -10.7103 -10.7051 -10.6735 -10.6643 -10.6204 -10.6177 -10.5602 -10.5567
   -10.5358 -10.5335 -10.4141 -10.4105 -10.4018 -10.3936 -10.3750 -10.3644
    -2.9742  -2.9635  -0.0986  -0.0883   0.1819   0.1985   0.3011   0.3093
     1.9331   1.9792   2.2500   2.2920   6.6366   6.6820   6.7956   6.8892
     7.3847   7.5255   7.6312

          k = 0.3303 0.3284 0.4620 ( 23168 PWs)   bands (ev):

   -27.0757 -27.0719 -27.0704 -27.0685 -26.9449 -26.9432 -10.7707 -10.7535
   -10.7253 -10.6992 -10.6765 -10.6451 -10.6321 -10.6041 -10.5584 -10.5514
   -10.5370 -10.5333 -10.4319 -10.4116 -10.3948 -10.3929 -10.3737 -10.3625
    -2.9989  -2.9514  -0.1157  -0.0154   0.0916   0.2853   0.3145   0.3288
     1.8921   1.9668   2.2036   2.2824   6.4216   6.5056   6.8459   7.1495
     7.3701   7.6325   7.6626

          k = 0.3304 0.3284-0.1196 ( 23167 PWs)   bands (ev):

   -27.0770 -27.0716 -27.0701 -27.0677 -26.9454 -26.9427 -10.7845 -10.7577
   -10.7303 -10.7090 -10.6587 -10.6462 -10.6368 -10.5710 -10.5540 -10.5472
   -10.5337 -10.5326 -10.4578 -10.4240 -10.3932 -10.3892 -10.3699 -10.3572
    -3.0337  -2.9422  -0.1190   0.0301   0.1249   0.3105   0.3551   0.3730
     1.7991   1.8815   2.1673   2.2685   6.2005   6.3414   6.8212   7.1843
     7.4775   7.7805   7.9052

          k = 0.3304 0.3284-0.0033 ( 23154 PWs)   bands (ev):

   -27.0775 -27.0718 -27.0697 -27.0674 -26.9456 -26.9425 -10.7906 -10.7623
   -10.7304 -10.7098 -10.6565 -10.6528 -10.6303 -10.5526 -10.5493 -10.5451
   -10.5346 -10.5273 -10.4747 -10.4325 -10.3942 -10.3892 -10.3646 -10.3559
    -3.0500  -2.9390  -0.1166   0.0119   0.2293   0.2690   0.3894   0.3954
     1.7334   1.8273   2.1601   2.2728   6.1228   6.2828   6.7804   7.1604
     7.5362   7.7924   7.9550

          k = 0.3304 0.3284 0.1131 ( 23180 PWs)   bands (ev):

   -27.0769 -27.0715 -27.0704 -27.0677 -26.9453 -26.9428 -10.7839 -10.7588
   -10.7314 -10.7117 -10.6628 -10.6453 -10.6281 -10.5683 -10.5553 -10.5489
   -10.5350 -10.5285 -10.4604 -10.4239 -10.3970 -10.3919 -10.3635 -10.3585
    -3.0394  -2.9374  -0.1092   0.0396   0.1003   0.3359   0.3502   0.3657
     1.7779   1.8620   2.1911   2.2810   6.2119   6.3464   6.7584   7.1914
     7.5195   7.7440   7.9041

          k = 0.3303-0.4926 0.2294 ( 23172 PWs)   bands (ev):

   -27.0727 -27.0727 -27.0699 -27.0699 -26.9447 -26.9447 -10.7711 -10.7711
   -10.7201 -10.7201 -10.6605 -10.6605 -10.6147 -10.6147 -10.5452 -10.5452
   -10.5343 -10.5343 -10.4244 -10.4244 -10.3952 -10.3952 -10.3634 -10.3634
    -2.9543  -2.9543  -0.0591  -0.0591   0.1952   0.1952   0.3152   0.3152
     1.8495   1.8495   2.2635   2.2635   6.3689   6.3689   7.0928   7.0928
     7.6415   7.6421   7.9410

          k = 0.3303-0.4926 0.3457 ( 23180 PWs)   bands (ev):

   -27.0721 -27.0721 -27.0706 -27.0706 -26.9447 -26.9447 -10.7694 -10.7694
   -10.6961 -10.6961 -10.6809 -10.6809 -10.6268 -10.6268 -10.5435 -10.5435
   -10.5358 -10.5358 -10.4089 -10.4089 -10.3984 -10.3984 -10.3695 -10.3695
    -2.9476  -2.9476  -0.0575  -0.0575   0.1651   0.1651   0.2961   0.2961
     1.8927   1.8927   2.2781   2.2781   6.5862   6.5862   6.9185   6.9186
     7.5346   7.5348   7.8181

          k = 0.3303-0.4926 0.4620 ( 23154 PWs)   bands (ev):

   -27.0728 -27.0728 -27.0698 -27.0698 -26.9447 -26.9447 -10.7715 -10.7715
   -10.7171 -10.7171 -10.6581 -10.6581 -10.6228 -10.6228 -10.5431 -10.5431
   -10.5350 -10.5350 -10.4235 -10.4235 -10.3896 -10.3896 -10.3682 -10.3682
    -2.9535  -2.9535  -0.0633  -0.0633   0.1709   0.1709   0.3433   0.3433
     1.8569   1.8569   2.2552   2.2552   6.3722   6.3722   7.1774   7.1774
     7.4802   7.4804   7.8725

          k = 0.3304-0.4926-0.1196 ( 23154 PWs)   bands (ev):

   -27.0736 -27.0736 -27.0690 -27.0690 -26.9447 -26.9447 -10.7790 -10.7790
   -10.7283 -10.7283 -10.6566 -10.6566 -10.5943 -10.5943 -10.5415 -10.5415
   -10.5333 -10.5333 -10.4475 -10.4475 -10.3867 -10.3867 -10.3614 -10.3614
    -2.9660  -2.9660  -0.0865  -0.0865   0.2619   0.2619   0.3762   0.3762
     1.7664   1.7664   2.2242   2.2242   6.1466   6.1466   7.2706   7.2706
     7.6942   7.6943   7.9731

          k = 0.3304-0.4926-0.0033 ( 23166 PWs)   bands (ev):

   -27.0739 -27.0739 -27.0687 -27.0687 -26.9447 -26.9447 -10.7839 -10.7839
   -10.7296 -10.7296 -10.6603 -10.6603 -10.5760 -10.5760 -10.5395 -10.5395
   -10.5315 -10.5315 -10.4633 -10.4633 -10.3871 -10.3871 -10.3572 -10.3572
    -2.9725  -2.9725  -0.0954  -0.0954   0.3462   0.3462   0.3566   0.3566
     1.7089   1.7089   2.2165   2.2165   6.0656   6.0656   7.2717   7.2717
     7.7380   7.7383   8.1263

          k = 0.3304-0.4926 0.1131 ( 23174 PWs)   bands (ev):

   -27.0735 -27.0735 -27.0691 -27.0691 -26.9447 -26.9447 -10.7789 -10.7789
   -10.7302 -10.7302 -10.6580 -10.6580 -10.5866 -10.5866 -10.5448 -10.5448
   -10.5322 -10.5322 -10.4497 -10.4497 -10.3901 -10.3901 -10.3580 -10.3580
    -2.9668  -2.9668  -0.0782  -0.0782   0.2651   0.2651   0.3667   0.3667
     1.7563   1.7563   2.2335   2.2335   6.1480   6.1480   7.2376   7.2376
     7.7062   7.7064   8.1582

          k =-0.4955 0.0000-0.3441 ( 23176 PWs)   bands (ev):

   -27.0746 -27.0727 -27.0716 -27.0701 -26.9430 -26.9425 -10.7468 -10.7312
   -10.6951 -10.6891 -10.6630 -10.6423 -10.6024 -10.6019 -10.5923 -10.5838
   -10.5769 -10.5697 -10.4174 -10.4095 -10.4058 -10.3995 -10.3676 -10.3542
    -2.9950  -2.9725  -0.3210  -0.3000   0.2679   0.3039   0.3211   0.3332
     2.1672   2.1985   2.2622   2.3513   6.2665   6.3139   6.9983   7.0535
     7.5622   7.7000   7.7548

          k =-0.4955 0.0000-0.2277 ( 23162 PWs)   bands (ev):

   -27.0752 -27.0741 -27.0702 -27.0695 -26.9430 -26.9426 -10.7454 -10.7302
   -10.7001 -10.6919 -10.6701 -10.6550 -10.6030 -10.5957 -10.5884 -10.5730
   -10.5690 -10.5680 -10.4177 -10.4105 -10.4056 -10.3989 -10.3690 -10.3564
    -3.0019  -2.9826  -0.2816  -0.2540   0.2581   0.3026   0.3197   0.3284
     2.1257   2.2027   2.2233   2.3301   6.2970   6.3162   7.1263   7.1309
     7.5343   7.5344   7.5740

          k =-0.4955 0.0000-0.1114 ( 23166 PWs)   bands (ev):

   -27.0760 -27.0756 -27.0688 -27.0686 -26.9429 -26.9427 -10.7404 -10.7267
   -10.7142 -10.7048 -10.6729 -10.6664 -10.6043 -10.5979 -10.5820 -10.5717
   -10.5495 -10.5488 -10.4178 -10.4132 -10.4046 -10.3990 -10.3706 -10.3620
    -3.0145  -3.0034  -0.1916  -0.1579   0.2389   0.3033   0.3046   0.3171
     2.0420   2.1151   2.2281   2.2976   6.4089   6.4108   6.9526   7.1042
     7.3286   7.4018   7.6178

          k =-0.4955 0.0000-0.6931 ( 23166 PWs)   bands (ev):

   -27.0762 -27.0762 -27.0683 -27.0683 -26.9428 -26.9428 -10.7302 -10.7302
   -10.7182 -10.7182 -10.6705 -10.6705 -10.6031 -10.6031 -10.5751 -10.5751
   -10.5400 -10.5400 -10.4163 -10.4163 -10.4018 -10.4018 -10.3679 -10.3679
    -3.0171  -3.0171  -0.1237  -0.1237   0.2572   0.2572   0.3104   0.3104
     2.0275   2.0275   2.2630   2.2630   6.5811   6.5811   6.7432   6.7432
     7.3381   7.3381   7.7424

          k =-0.4955 0.1642-0.3441 ( 23150 PWs)   bands (ev):

   -27.0739 -27.0722 -27.0715 -27.0702 -26.9436 -26.9432 -10.7499 -10.7409
   -10.7092 -10.7050 -10.6669 -10.6522 -10.6061 -10.6034 -10.5772 -10.5699
   -10.5620 -10.5556 -10.4156 -10.4091 -10.4047 -10.3969 -10.3706 -10.3567
    -2.9817  -2.9615  -0.2441  -0.2347   0.2419   0.2793   0.3022   0.3206
     2.0742   2.1877   2.1948   2.3091   6.3972   6.4250   6.9051   7.2649
     7.4951   7.4956   7.6545

          k =-0.4955 0.1642-0.2277 ( 23150 PWs)   bands (ev):

   -27.0745 -27.0735 -27.0702 -27.0695 -26.9436 -26.9433 -10.7557 -10.7406
   -10.7118 -10.7012 -10.6827 -10.6452 -10.6048 -10.5986 -10.5766 -10.5618
   -10.5580 -10.5547 -10.4247 -10.4089 -10.4015 -10.3964 -10.3719 -10.3564
    -2.9880  -2.9706  -0.2166  -0.1930   0.2266   0.2633   0.3218   0.3389
     2.0600   2.0904   2.2320   2.2814   6.3792   6.4074   6.9387   7.2116
     7.3842   7.4248   7.7353

          k =-0.4955 0.1642-0.1114 ( 23152 PWs)   bands (ev):

   -27.0753 -27.0748 -27.0690 -27.0686 -26.9436 -26.9434 -10.7624 -10.7489
   -10.7098 -10.7071 -10.6781 -10.6557 -10.6047 -10.5990 -10.5628 -10.5553
   -10.5484 -10.5440 -10.4344 -10.4195 -10.3971 -10.3955 -10.3696 -10.3582
    -2.9995  -2.9895  -0.1533  -0.1221   0.2310   0.2705   0.3243   0.3490
     1.9750   2.0000   2.2257   2.2536   6.3879   6.4139   6.8242   6.9381
     7.5288   7.5623   7.8228

          k =-0.4955 0.1642-0.6931 ( 23158 PWs)   bands (ev):

   -27.0755 -27.0755 -27.0683 -27.0683 -26.9435 -26.9435 -10.7603 -10.7603
   -10.7073 -10.7073 -10.6687 -10.6687 -10.6031 -10.6031 -10.5566 -10.5566
   -10.5374 -10.5374 -10.4328 -10.4328 -10.3955 -10.3955 -10.3633 -10.3633
    -3.0020  -3.0020  -0.1077  -0.1077   0.2816   0.2816   0.3172   0.3172
     1.9388   1.9388   2.2343   2.2343   6.4302   6.4302   6.7686   6.7686
     7.5729   7.5732   7.9157

          k =-0.4955 0.3284-0.3441 ( 23178 PWs)   bands (ev):

   -27.0723 -27.0713 -27.0711 -27.0703 -26.9449 -26.9446 -10.7716 -10.7691
   -10.7095 -10.7019 -10.6715 -10.6638 -10.6297 -10.6282 -10.5442 -10.5421
   -10.5381 -10.5347 -10.4115 -10.4075 -10.4040 -10.3959 -10.3731 -10.3623
    -2.9529  -2.9404  -0.0673  -0.0459   0.1629   0.1834   0.2765   0.3043
     1.8549   1.9408   2.2365   2.3032   6.5754   6.6484   6.7488   6.9633
     7.5519   7.7183   7.7658

          k =-0.4955 0.3284-0.2277 ( 23181 PWs)   bands (ev):

   -27.0731 -27.0722 -27.0703 -27.0694 -26.9449 -26.9447 -10.7734 -10.7706
   -10.7296 -10.7060 -10.6766 -10.6412 -10.6215 -10.6158 -10.5495 -10.5388
   -10.5365 -10.5337 -10.4322 -10.4177 -10.3942 -10.3921 -10.3705 -10.3585
    -2.9584  -2.9476  -0.0786  -0.0389   0.1574   0.2149   0.3158   0.3383
     1.8266   1.8840   2.2314   2.2770   6.3613   6.3755   7.0102   7.2044
     7.4871   7.8067   7.8383

          k =-0.4955 0.3284-0.1114 ( 23183 PWs)   bands (ev):

   -27.0738 -27.0733 -27.0692 -27.0687 -26.9448 -26.9447 -10.7807 -10.7770
   -10.7346 -10.7247 -10.6645 -10.6514 -10.6006 -10.5766 -10.5524 -10.5354
   -10.5330 -10.5320 -10.4565 -10.4436 -10.3887 -10.3883 -10.3626 -10.3548
    -2.9685  -2.9623  -0.0947  -0.0682   0.2461   0.2849   0.3683   0.3757
     1.7541   1.7680   2.2192   2.2333   6.1431   6.1467   7.1678   7.2850
     7.6896   7.9162   7.9596

          k =-0.4955 0.3284-0.6931 ( 23166 PWs)   bands (ev):

   -27.0739 -27.0739 -27.0686 -27.0686 -26.9448 -26.9448 -10.7834 -10.7834
   -10.7305 -10.7305 -10.6605 -10.6605 -10.5787 -10.5787 -10.5365 -10.5365
   -10.5303 -10.5303 -10.4653 -10.4653 -10.3872 -10.3872 -10.3561 -10.3561
    -2.9715  -2.9715  -0.0952  -0.0952   0.3432   0.3432   0.3630   0.3630
     1.7083   1.7083   2.2141   2.2141   6.0641   6.0641   7.2372   7.2372
     7.8421   7.8423   8.0983

          k =-0.4955-0.4926-0.3441 ( 23168 PWs)   bands (ev):

   -27.0713 -27.0713 -27.0705 -27.0705 -26.9454 -26.9454 -10.7837 -10.7837
   -10.6903 -10.6903 -10.6797 -10.6797 -10.6423 -10.6423 -10.5291 -10.5291
   -10.5281 -10.5281 -10.4071 -10.4071 -10.4028 -10.4028 -10.3680 -10.3680
    -2.9339  -2.9339   0.1062   0.1062   0.1276   0.1276   0.2179   0.2179
     1.7772   1.7772   2.2807   2.2807   6.6147   6.6147   6.7862   6.7862
     7.8015   7.8015   8.0446

          k =-0.4955-0.4926-0.2277 ( 23160 PWs)   bands (ev):

   -27.0720 -27.0720 -27.0698 -27.0698 -26.9454 -26.9454 -10.7841 -10.7841
   -10.7209 -10.7209 -10.6561 -10.6561 -10.6272 -10.6272 -10.5300 -10.5300
   -10.5274 -10.5274 -10.4310 -10.4310 -10.3906 -10.3906 -10.3635 -10.3635
    -2.9396  -2.9396   0.0069   0.0069   0.2245   0.2245   0.2743   0.2743
     1.7335   1.7335   2.2606   2.2606   6.2852   6.2852   7.1877   7.1877
     7.7596   7.7596   8.1534

          k =-0.4955-0.4926-0.1114 ( 23200 PWs)   bands (ev):

   -27.0728 -27.0728 -27.0691 -27.0691 -26.9454 -26.9454 -10.7884 -10.7884
   -10.7367 -10.7367 -10.6618 -10.6618 -10.5793 -10.5793 -10.5317 -10.5317
   -10.5266 -10.5266 -10.4651 -10.4651 -10.3849 -10.3849 -10.3561 -10.3561
    -2.9507  -2.9507  -0.0712  -0.0712   0.3329   0.3329   0.3620   0.3620
     1.6323   1.6323   2.2252   2.2252   6.0197   6.0197   7.5099   7.5099
     7.8326   7.8329   8.1978

          k =-0.4955-0.4926-0.6931 ( 23208 PWs)   bands (ev):

   -27.0730 -27.0730 -27.0688 -27.0688 -26.9454 -26.9454 -10.7921 -10.7921
   -10.7385 -10.7385 -10.6664 -10.6664 -10.5432 -10.5432 -10.5379 -10.5379
   -10.5262 -10.5262 -10.4898 -10.4898 -10.3832 -10.3832 -10.3530 -10.3530
    -2.9562  -2.9562  -0.0991  -0.0991   0.3903   0.3903   0.3983   0.3983
     1.5733   1.5733   2.2095   2.2095   5.9261   5.9261   7.5533   7.5533
     7.9042   7.9042   8.2613

     the Fermi energy is     4.3527 ev

!    total energy              =    -771.38406034 Ry
     estimated scf accuracy    <          9.4E-11 Ry
     smearing contrib. (-TS)   =      -0.00000000 Ry
     internal energy E=F+TS    =    -771.38406034 Ry

     The total energy is F=E-TS. E is the sum of the following terms:
     one-electron contribution =    -137.33547108 Ry
     hartree contribution      =      89.55947853 Ry
     xc contribution           =     -81.44620002 Ry
     ewald contribution        =    -240.32887781 Ry
     one-center paw contrib.   =    -401.83298996 Ry

     convergence has been achieved in   9 iterations

     Forces acting on atoms (cartesian axes, Ry/au):

     atom    1 type  3   force =    -0.00003261   -0.00011748   -0.00006232
     atom    2 type  3   force =     0.00003261    0.00011748    0.00006232
     atom    3 type  3   force =     0.00003261   -0.00011748    0.00006232
     atom    4 type  3   force =    -0.00003261    0.00011748   -0.00006232
     atom    5 type  3   force =     0.00000000    0.00000000    0.00000000
     atom    6 type  3   force =     0.00000000    0.00000000    0.00000000
     atom    7 type  1   force =     0.00000000    0.00000000    0.00000000
     atom    8 type  1   force =     0.00000000    0.00000000    0.00000000
     atom    9 type  2   force =     0.00002488   -0.00003230   -0.00006226
     atom   10 type  2   force =    -0.00002488    0.00003230    0.00006226
     atom   11 type  2   force =    -0.00002488   -0.00003230    0.00006226
     atom   12 type  2   force =     0.00002488    0.00003230   -0.00006226
     atom   13 type  2   force =    -0.00008035    0.00009071   -0.00014255
     atom   14 type  2   force =     0.00008035   -0.00009071    0.00014255
     atom   15 type  2   force =     0.00008035    0.00009071    0.00014255
     atom   16 type  2   force =    -0.00008035   -0.00009071   -0.00014255
     atom   17 type  2   force =     0.00014521    0.00001270   -0.00003820
     atom   18 type  2   force =    -0.00014521   -0.00001270    0.00003820
     atom   19 type  2   force =    -0.00014521    0.00001270    0.00003820
     atom   20 type  2   force =     0.00014521   -0.00001270   -0.00003820

     Total force =     0.000573     Total SCF correction =     0.000009


     Computing stress (Cartesian axis) and pressure

          total   stress  (Ry/bohr**3)                   (kbar)     P=       -0.15
  -0.00000069   0.00000000   0.00000018           -0.10        0.00        0.03
   0.00000000  -0.00000150   0.00000000            0.00       -0.22        0.00
   0.00000018   0.00000000  -0.00000092            0.03        0.00       -0.14


     Writing all to output data dir ./k3alh6.save/
 
     init_run     :      2.49s CPU      2.67s WALL (       2 calls)
     electrons    :    203.44s CPU    208.06s WALL (      10 calls)
     update_pot   :      2.89s CPU      2.95s WALL (       8 calls)
     forces       :      4.22s CPU      4.26s WALL (      10 calls)
     stress       :     11.21s CPU     11.28s WALL (      10 calls)

     Called by init_run:
     wfcinit      :      1.48s CPU      1.54s WALL (       2 calls)
     potinit      :      0.32s CPU      0.35s WALL (       2 calls)
     hinit0       :      0.34s CPU      0.39s WALL (       2 calls)

     Called by electrons:
     c_bands      :    173.06s CPU    176.65s WALL (     103 calls)
     sum_band     :     23.49s CPU     23.99s WALL (     103 calls)
     v_of_rho     :      0.86s CPU      0.87s WALL (     112 calls)
     newd         :      1.34s CPU      1.39s WALL (     112 calls)
     PAW_pot      :      4.89s CPU      5.00s WALL (     120 calls)
     mix_rho      :      0.24s CPU      0.24s WALL (     103 calls)

     Called by c_bands:
     init_us_2    :      2.87s CPU      3.06s WALL (    6372 calls)
     init_us_2:cp :      2.84s CPU      3.04s WALL (    6372 calls)
     cegterg      :    148.29s CPU    150.70s WALL (    2781 calls)

     Called by *egterg:
     cdiaghg      :     21.89s CPU     22.14s WALL (   11382 calls)
     h_psi        :    105.02s CPU    107.01s WALL (   11679 calls)
     s_psi        :      4.92s CPU      4.98s WALL (   11679 calls)
     g_psi        :      0.38s CPU      0.38s WALL (    8844 calls)

     Called by h_psi:
     h_psi:calbec :      7.66s CPU      7.79s WALL (   11679 calls)
     vloc_psi     :     90.97s CPU     92.76s WALL (   11679 calls)
     add_vuspsi   :      5.65s CPU      5.71s WALL (   11679 calls)

     General routines
     calbec       :     10.89s CPU     11.07s WALL (   16026 calls)
     fft          :      0.96s CPU      0.99s WALL (    1695 calls)
     ffts         :      0.09s CPU      0.09s WALL (     215 calls)
     fftw         :     98.58s CPU    100.53s WALL (  769789 calls)
     interpolate  :      0.09s CPU      0.10s WALL (     112 calls)
 
     Parallel routines
 
     PWSCF        :   3m45.83s CPU   3m51.42s WALL

 
   This run was terminated on:  19:43:49  27Nov2023            

=------------------------------------------------------------------------------=
   JOB DONE.
=------------------------------------------------------------------------------=
Job execution finished at: Mon Nov 27 19:43:49 IST 2023
