==========================================
SLURM_CLUSTER_NAME = paramganga
SLURM_ARRAY_JOB_ID = 
SLURM_ARRAY_TASK_ID = 
SLURM_ARRAY_TASK_COUNT = 
SLURM_ARRAY_TASK_MAX = 
SLURM_ARRAY_TASK_MIN = 
SLURM_JOB_ACCOUNT = iitr
SLURM_JOB_ID = 173804
SLURM_JOB_NAME = 19280
SLURM_JOB_NODELIST = cn[147-149]
SLURM_JOB_USER = garima.iitr
SLURM_JOB_UID = 38339
SLURM_JOB_PARTITION = small
SLURM_TASK_PID = 29683
SLURM_SUBMIT_DIR = /home/garima.iitr/.cache/.es/compmat/k3alh6
SLURM_CPUS_ON_NODE = 48
SLURM_NTASKS = 144
SLURM_TASK_PID = 29683
==========================================
cn147
 
:: initializing oneAPI environment ...
   slurm_script: BASH_VERSION = 4.2.46(2)-release
   args: Using "$@" for setvars.sh arguments: 
:: advisor -- latest
:: ccl -- latest
:: clck -- latest
:: compiler -- latest
:: dal -- latest
:: debugger -- latest
:: dev-utilities -- latest
:: dnnl -- latest
:: dpcpp-ct -- latest
:: dpl -- latest
:: inspector -- latest
:: intelpython -- latest
:: ipp -- latest
:: ippcp -- latest
:: ipp -- latest
:: itac -- latest
:: mkl -- latest
:: mpi -- latest
:: tbb -- latest
:: vpl -- latest
:: vtune -- latest
:: oneAPI environment initialized ::
 
Job execution start: Mon Nov 27 17:19:46 IST 2023
Job submitted by garima.iitr
The job ID is:173804

     Program PWSCF v.7.1 starts on 27Nov2023 at 17:19:50 

     This program is part of the open-source Quantum ESPRESSO suite
     for quantum simulation of materials; please cite
         "P. Giannozzi et al., J. Phys.:Condens. Matter 21 395502 (2009);
         "P. Giannozzi et al., J. Phys.:Condens. Matter 29 465901 (2017);
         "P. Giannozzi et al., J. Chem. Phys. 152 154105 (2020);
          URL http://www.quantum-espresso.org", 
     in publications or presentations arising from this work. More details at
     http://www.quantum-espresso.org/quote

     Parallel version (MPI & OpenMP), running on     144 processor cores
     Number of MPI processes:               144
     Threads/MPI process:                     1

     MPI processes distributed on     3 nodes
     169652 MiB available memory on the printing compute node when the environment starts
 
     Reading input from k3alh6.in

     Current dimensions of program PWSCF are:
     Max number of different atomic species (ntypx) = 10
     Max number of k-points (npk) =  40000
     Max angular momentum in pseudopotentials (lmaxx) =  4
     file Al.pbe-n-kjpaw_psl.1.0.0.UPF: wavefunction(s)  3S 3P renormalized
     file K.pbe-spn-kjpaw_psl.1.0.0.UPF: wavefunction(s)  3S renormalized

     IMPORTANT: XC functional enforced from input :
     Exchange-correlation= PBE
                           (   1   4   3   4   0   0   0)
     Any further DFT definition will be discarded
     Please, verify this is what you really want

     Message from routine setup:
     using ibrav=0 with symmetry is DISCOURAGED, use correct ibrav instead
 
     K-points division:     npool     =       3
     R & G space division:  proc/nbgrp/npool/nimage =      48
     Subspace diagonalization in iterative solution of the eigenvalue problem:
     a serial algorithm will be used

 
     Parallelization info
     --------------------
     sticks:   dense  smooth     PW     G-vecs:    dense   smooth      PW
     Min          79      63     18                 5248     3753     564
     Max          80      64     19                 5256     3761     568
     Sum        3827    3061    869               252073   180385   27179
 
     Using Slab Decomposition
 


     bravais-lattice index     =            0
     lattice parameter (alat)  =      11.2914  a.u.
     unit-cell volume          =    2056.0729 (a.u.)^3
     number of atoms/cell      =           20
     number of atomic types    =            3
     number of electrons       =        72.00
     number of Kohn-Sham states=           43
     kinetic-energy cutoff     =      75.0000  Ry
     charge density cutoff     =     375.0000  Ry
     scf convergence threshold =      1.0E-08
     mixing beta               =       0.7000
     number of iterations used =            8  plain     mixing
     energy convergence thresh.=      1.0E-04
     force convergence thresh. =      1.0E-03
     Exchange-correlation= PBE
                           (   1   4   3   4   0   0   0)
     nstep                     =           50


     celldm(1)=  11.291378  celldm(2)=   0.000000  celldm(3)=   0.000000
     celldm(4)=   0.000000  celldm(5)=   0.000000  celldm(6)=   0.000000

     crystal axes: (cart. coord. in units of alat)
               a(1) = (   1.000000   0.000000   0.000000 )  
               a(2) = (   0.000000   1.006241   0.000000 )  
               a(3) = (  -0.986032   0.000000   1.419371 )  

     reciprocal axes: (cart. coord. in units 2 pi/alat)
               b(1) = (  1.000000  0.000000  0.694696 )  
               b(2) = (  0.000000  0.993798  0.000000 )  
               b(3) = (  0.000000  0.000000  0.704538 )  


     PseudoPot. # 1 for Al read from file:
     /home/garima.iitr/.cache/.es/compmat/kalh4/Al.pbe-n-kjpaw_psl.1.0.0.UPF
     MD5 check sum: 502b6b27b9c6270cab5dd1084b96fa6d
     Pseudo is Projector augmented-wave + core cor, Zval =  3.0
     Generated using &quot;atomic&quot; code by A. Dal Corso  v.6.3
     Shape of augmentation charge: PSQ
     Using radial grid of 1135 points,  6 beta functions with: 
                l(1) =   0
                l(2) =   0
                l(3) =   1
                l(4) =   1
                l(5) =   2
                l(6) =   2
     Q(r) pseudized with 0 coefficients 


     PseudoPot. # 2 for H  read from file:
     /home/garima.iitr/.cache/.es/compmat/kalh4/H.pbe-rrkjus_psl.1.0.0.UPF
     MD5 check sum: 3f4114867bd07edc7f1424d066fc1888
     Pseudo is Ultrasoft, Zval =  1.0
     Generated using &quot;atomic&quot; code by A. Dal Corso  v.6.3MaX
     Using radial grid of  929 points,  2 beta functions with: 
                l(1) =   0
                l(2) =   0
     Q(r) pseudized with 0 coefficients 


     PseudoPot. # 3 for K  read from file:
     /home/garima.iitr/.cache/.es/compmat/kalh4/K.pbe-spn-kjpaw_psl.1.0.0.UPF
     MD5 check sum: 34cc42130a09071ebe376fd42eb21491
     Pseudo is Projector augmented-wave + core cor, Zval =  9.0
     Generated using &quot;atomic&quot; code by A. Dal Corso  v.6.2.2
     Shape of augmentation charge: PSQ
     Using radial grid of 1165 points,  6 beta functions with: 
                l(1) =   0
                l(2) =   0
                l(3) =   1
                l(4) =   1
                l(5) =   2
                l(6) =   2
     Q(r) pseudized with 0 coefficients 


     atomic species   valence    mass     pseudopotential
        Al             3.00    26.98100     Al( 1.00)
        H              1.00     1.00750     H ( 1.00)
        K              9.00    39.09830     K ( 1.00)

      4 Sym. Ops., with inversion, found ( 2 have fractional translation)



   Cartesian axes

     site n.     atom                  positions (alat units)
         1           K   tau(   1) = (   0.4973490   0.5316069   0.3535085  )
         2           K   tau(   2) = (  -0.4833806   0.4746336   1.0658623  )
         3           K   tau(   3) = (   0.0096352   0.0284867   0.3561769  )
         4           K   tau(   4) = (   0.0043331   0.9777538   1.0631939  )
         5           K   tau(   5) = (  -0.4930158   0.0000000   0.7096854  )
         6           K   tau(   6) = (   0.0000000   0.5031203   0.0000000  )
         7           Al  tau(   7) = (   0.5000000   0.0000000   0.0000000  )
         8           Al  tau(   8) = (   0.0069842   0.5031203   0.7096854  )
         9           H   tau(   9) = (   0.1734345   0.7428369   0.6589145  )
        10           H   tau(  10) = (  -0.1594662   0.2634036   0.7604563  )
        11           H   tau(  11) = (   0.3335496   0.2397167   0.0507709  )
        12           H   tau(  12) = (  -0.3195813   0.7665238   1.3685999  )
        13           H   tau(  13) = (  -0.2499678   0.1721979   1.3780955  )
        14           H   tau(  14) = (   0.2639362   0.8340426   0.0412753  )
        15           H   tau(  15) = (  -0.2290796   0.6753182   0.7509607  )
        16           H   tau(  16) = (   0.2430480   0.3309223   0.6684101  )
        17           H   tau(  17) = (   0.0688195   0.5227017   0.9977893  )
        18           H   tau(  18) = (  -0.0548511   0.4835388   0.4215815  )
        19           H   tau(  19) = (  -0.5478669   0.0195814   1.1312669  )
        20           H   tau(  20) = (   0.5618353   0.9866591   0.2881039  )

     number of k points=    80  Marzari-Vanderbilt smearing, width (Ry)=  0.0050
                       cart. coord. in units 2pi/alat
        k(    1) = (   0.0000000   0.0000000   0.0000000), wk =   0.0092593
        k(    2) = (   0.0000000   0.0000000   0.1174229), wk =   0.0185185
        k(    3) = (   0.0000000   0.0000000   0.2348459), wk =   0.0185185
        k(    4) = (   0.0000000   0.0000000  -0.3522688), wk =   0.0092593
        k(    5) = (   0.0000000   0.1656330   0.0000000), wk =   0.0185185
        k(    6) = (   0.0000000   0.1656330   0.1174229), wk =   0.0370370
        k(    7) = (   0.0000000   0.1656330   0.2348459), wk =   0.0370370
        k(    8) = (   0.0000000   0.1656330  -0.3522688), wk =   0.0185185
        k(    9) = (   0.0000000   0.3312661   0.0000000), wk =   0.0185185
        k(   10) = (   0.0000000   0.3312661   0.1174229), wk =   0.0370370
        k(   11) = (   0.0000000   0.3312661   0.2348459), wk =   0.0370370
        k(   12) = (   0.0000000   0.3312661  -0.3522688), wk =   0.0185185
        k(   13) = (   0.0000000  -0.4968991   0.0000000), wk =   0.0092593
        k(   14) = (   0.0000000  -0.4968991   0.1174229), wk =   0.0185185
        k(   15) = (   0.0000000  -0.4968991   0.2348459), wk =   0.0185185
        k(   16) = (   0.0000000  -0.4968991  -0.3522688), wk =   0.0092593
        k(   17) = (   0.1666667   0.0000000   0.1157827), wk =   0.0185185
        k(   18) = (   0.1666667   0.0000000   0.2332056), wk =   0.0185185
        k(   19) = (   0.1666667   0.0000000   0.3506286), wk =   0.0185185
        k(   20) = (   0.1666667   0.0000000  -0.2364861), wk =   0.0185185
        k(   21) = (   0.1666667   0.0000000  -0.1190631), wk =   0.0185185
        k(   22) = (   0.1666667   0.0000000  -0.0016402), wk =   0.0185185
        k(   23) = (   0.1666667   0.1656330   0.1157827), wk =   0.0370370
        k(   24) = (   0.1666667   0.1656330   0.2332056), wk =   0.0370370
        k(   25) = (   0.1666667   0.1656330   0.3506286), wk =   0.0370370
        k(   26) = (   0.1666667   0.1656330  -0.2364861), wk =   0.0370370
        k(   27) = (   0.1666667   0.1656330  -0.1190631), wk =   0.0370370
        k(   28) = (   0.1666667   0.1656330  -0.0016402), wk =   0.0370370
        k(   29) = (   0.1666667   0.3312661   0.1157827), wk =   0.0370370
        k(   30) = (   0.1666667   0.3312661   0.2332056), wk =   0.0370370
        k(   31) = (   0.1666667   0.3312661   0.3506286), wk =   0.0370370
        k(   32) = (   0.1666667   0.3312661  -0.2364861), wk =   0.0370370
        k(   33) = (   0.1666667   0.3312661  -0.1190631), wk =   0.0370370
        k(   34) = (   0.1666667   0.3312661  -0.0016402), wk =   0.0370370
        k(   35) = (   0.1666667  -0.4968991   0.1157827), wk =   0.0185185
        k(   36) = (   0.1666667  -0.4968991   0.2332056), wk =   0.0185185
        k(   37) = (   0.1666667  -0.4968991   0.3506286), wk =   0.0185185
        k(   38) = (   0.1666667  -0.4968991  -0.2364861), wk =   0.0185185
        k(   39) = (   0.1666667  -0.4968991  -0.1190631), wk =   0.0185185
        k(   40) = (   0.1666667  -0.4968991  -0.0016402), wk =   0.0185185
        k(   41) = (   0.3333333   0.0000000   0.2315654), wk =   0.0185185
        k(   42) = (   0.3333333   0.0000000   0.3489884), wk =   0.0185185
        k(   43) = (   0.3333333   0.0000000   0.4664113), wk =   0.0185185
        k(   44) = (   0.3333333   0.0000000  -0.1207033), wk =   0.0185185
        k(   45) = (   0.3333333   0.0000000  -0.0032804), wk =   0.0185185
        k(   46) = (   0.3333333   0.0000000   0.1141425), wk =   0.0185185
        k(   47) = (   0.3333333   0.1656330   0.2315654), wk =   0.0370370
        k(   48) = (   0.3333333   0.1656330   0.3489884), wk =   0.0370370
        k(   49) = (   0.3333333   0.1656330   0.4664113), wk =   0.0370370
        k(   50) = (   0.3333333   0.1656330  -0.1207033), wk =   0.0370370
        k(   51) = (   0.3333333   0.1656330  -0.0032804), wk =   0.0370370
        k(   52) = (   0.3333333   0.1656330   0.1141425), wk =   0.0370370
        k(   53) = (   0.3333333   0.3312661   0.2315654), wk =   0.0370370
        k(   54) = (   0.3333333   0.3312661   0.3489884), wk =   0.0370370
        k(   55) = (   0.3333333   0.3312661   0.4664113), wk =   0.0370370
        k(   56) = (   0.3333333   0.3312661  -0.1207033), wk =   0.0370370
        k(   57) = (   0.3333333   0.3312661  -0.0032804), wk =   0.0370370
        k(   58) = (   0.3333333   0.3312661   0.1141425), wk =   0.0370370
        k(   59) = (   0.3333333  -0.4968991   0.2315654), wk =   0.0185185
        k(   60) = (   0.3333333  -0.4968991   0.3489884), wk =   0.0185185
        k(   61) = (   0.3333333  -0.4968991   0.4664113), wk =   0.0185185
        k(   62) = (   0.3333333  -0.4968991  -0.1207033), wk =   0.0185185
        k(   63) = (   0.3333333  -0.4968991  -0.0032804), wk =   0.0185185
        k(   64) = (   0.3333333  -0.4968991   0.1141425), wk =   0.0185185
        k(   65) = (  -0.5000000   0.0000000  -0.3473482), wk =   0.0092593
        k(   66) = (  -0.5000000   0.0000000  -0.2299252), wk =   0.0185185
        k(   67) = (  -0.5000000   0.0000000  -0.1125023), wk =   0.0185185
        k(   68) = (  -0.5000000   0.0000000  -0.6996169), wk =   0.0092593
        k(   69) = (  -0.5000000   0.1656330  -0.3473482), wk =   0.0185185
        k(   70) = (  -0.5000000   0.1656330  -0.2299252), wk =   0.0370370
        k(   71) = (  -0.5000000   0.1656330  -0.1125023), wk =   0.0370370
        k(   72) = (  -0.5000000   0.1656330  -0.6996169), wk =   0.0185185
        k(   73) = (  -0.5000000   0.3312661  -0.3473482), wk =   0.0185185
        k(   74) = (  -0.5000000   0.3312661  -0.2299252), wk =   0.0370370
        k(   75) = (  -0.5000000   0.3312661  -0.1125023), wk =   0.0370370
        k(   76) = (  -0.5000000   0.3312661  -0.6996169), wk =   0.0185185
        k(   77) = (  -0.5000000  -0.4968991  -0.3473482), wk =   0.0092593
        k(   78) = (  -0.5000000  -0.4968991  -0.2299252), wk =   0.0185185
        k(   79) = (  -0.5000000  -0.4968991  -0.1125023), wk =   0.0185185
        k(   80) = (  -0.5000000  -0.4968991  -0.6996169), wk =   0.0092593

     Dense  grid:   252073 G-vectors     FFT dimensions: (  72,  72, 128)

     Smooth grid:   180385 G-vectors     FFT dimensions: (  64,  64, 108)

     Estimated max dynamical RAM per process >      24.00 MB

     Estimated total dynamical RAM >       3.25 GB

     Check: negative core charge=   -0.000002

     Initial potential from superposition of free atoms

     starting charge      71.8823, renormalised to      72.0000
     Starting wfcs are   68 randomized atomic wfcs
     Checking if some PAW data can be deallocated... 

     total cpu time spent up to now is        1.6 secs

     Self-consistent Calculation

     iteration #  1     ecut=    75.00 Ry     beta= 0.70
     Davidson diagonalization with overlap
     ethr =  1.00E-02,  avg # of iterations =  6.0

     total cpu time spent up to now is        3.8 secs

     total energy              =    -771.13794917 Ry
     estimated scf accuracy    <       1.27125080 Ry

     iteration #  2     ecut=    75.00 Ry     beta= 0.70
     Davidson diagonalization with overlap
     ethr =  1.77E-03,  avg # of iterations =  2.5

     total cpu time spent up to now is        5.6 secs

     total energy              =    -771.35586345 Ry
     estimated scf accuracy    <       0.07456652 Ry

     iteration #  3     ecut=    75.00 Ry     beta= 0.70
     Davidson diagonalization with overlap
     ethr =  1.04E-04,  avg # of iterations =  9.1

     total cpu time spent up to now is        8.5 secs

     total energy              =    -771.38059212 Ry
     estimated scf accuracy    <       0.00508577 Ry

     iteration #  4     ecut=    75.00 Ry     beta= 0.70
     Davidson diagonalization with overlap
     c_bands:  1 eigenvalues not converged
     ethr =  7.06E-06,  avg # of iterations =  9.4

     total cpu time spent up to now is       11.4 secs

     total energy              =    -771.38236957 Ry
     estimated scf accuracy    <       0.00026646 Ry

     iteration #  5     ecut=    75.00 Ry     beta= 0.70
     Davidson diagonalization with overlap
     c_bands:  1 eigenvalues not converged
     ethr =  3.70E-07,  avg # of iterations =  4.7

     total cpu time spent up to now is       13.4 secs

     total energy              =    -771.38245712 Ry
     estimated scf accuracy    <       0.00001386 Ry

     iteration #  6     ecut=    75.00 Ry     beta= 0.70
     Davidson diagonalization with overlap
     ethr =  1.93E-08,  avg # of iterations =  3.8

     total cpu time spent up to now is       15.4 secs

     total energy              =    -771.38246289 Ry
     estimated scf accuracy    <       0.00000058 Ry

     iteration #  7     ecut=    75.00 Ry     beta= 0.70
     Davidson diagonalization with overlap
     ethr =  8.12E-10,  avg # of iterations =  3.9

     total cpu time spent up to now is       17.8 secs

     End of self-consistent calculation

          k = 0.0000 0.0000 0.0000 ( 22501 PWs)   bands (ev):

   -26.8840 -26.8649 -26.8588 -26.8537 -26.7418 -26.7279 -10.5973 -10.5798
   -10.4693 -10.4587 -10.4447 -10.4236 -10.4229 -10.4220 -10.4178 -10.3242
   -10.3234 -10.3193 -10.2937 -10.2141 -10.1956 -10.1897 -10.1539 -10.1381
    -3.3026  -2.8493   0.0297   0.5183   0.5217   0.5257   0.5489   0.5608
     1.7275   2.0723   2.1645   2.4676   5.5051   5.9508   7.2554   7.3090
     7.5210   8.0208   8.0213

          k = 0.0000 0.0000 0.1174 ( 22553 PWs)   bands (ev):

   -26.8828 -26.8663 -26.8584 -26.8540 -26.7407 -26.7287 -10.5919 -10.5739
   -10.4894 -10.4666 -10.4537 -10.4276 -10.4115 -10.4082 -10.3998 -10.3282
   -10.3270 -10.3221 -10.2920 -10.2200 -10.1919 -10.1867 -10.1560 -10.1427
    -3.2687  -2.8735   0.0116   0.4389   0.5198   0.5263   0.5467   0.5566
     1.8144   2.0967   2.1931   2.4381   5.6415   6.0266   7.2892   7.3325
     7.3776   7.7122   8.0838

          k = 0.0000 0.0000 0.2348 ( 22550 PWs)   bands (ev):

   -26.8795 -26.8700 -26.8575 -26.8549 -26.7379 -26.7310 -10.5763 -10.5569
   -10.5213 -10.4994 -10.4459 -10.4315 -10.3939 -10.3857 -10.3761 -10.3393
   -10.3362 -10.3339 -10.2813 -10.2369 -10.1825 -10.1784 -10.1620 -10.1536
    -3.1772  -2.9461   0.0081   0.2556   0.5241   0.5290   0.5429   0.5487
     2.0008   2.1649   2.2201   2.3604   6.0157   6.2452   6.9804   7.0773
     7.5024   7.5448   7.9470

          k = 0.0000 0.0000-0.3523 ( 22576 PWs)   bands (ev):

   -26.8749 -26.8749 -26.8562 -26.8562 -26.7344 -26.7344 -10.5518 -10.5518
   -10.5310 -10.5310 -10.4377 -10.4377 -10.3773 -10.3773 -10.3557 -10.3557
   -10.3442 -10.3442 -10.2605 -10.2605 -10.1715 -10.1715 -10.1666 -10.1666
    -3.0571  -3.0571   0.0887   0.0887   0.5289   0.5289   0.5425   0.5425
     2.1601   2.1601   2.2606   2.2606   6.5194   6.5194   6.5981   6.5982
     7.6779   7.6793   7.7899

          k = 0.0000 0.1656 0.0000 ( 22521 PWs)   bands (ev):

   -26.8817 -26.8641 -26.8596 -26.8546 -26.7415 -26.7293 -10.5942 -10.5705
   -10.4866 -10.4657 -10.4592 -10.4459 -10.4165 -10.3961 -10.3871 -10.3807
   -10.3304 -10.3152 -10.2470 -10.2095 -10.1973 -10.1930 -10.1570 -10.1434
    -3.2371  -2.8399   0.0849   0.3862   0.3886   0.4981   0.5207   0.5306
     1.8418   2.1512   2.2002   2.4793   5.7684   6.1414   7.1214   7.3310
     7.5915   7.7873   8.1946

          k = 0.0000 0.1656 0.1174 ( 22552 PWs)   bands (ev):

   -26.8806 -26.8655 -26.8593 -26.8549 -26.7406 -26.7301 -10.5883 -10.5650
   -10.4976 -10.4709 -10.4596 -10.4493 -10.4028 -10.3994 -10.3842 -10.3736
   -10.3346 -10.3207 -10.2482 -10.2160 -10.1919 -10.1887 -10.1590 -10.1463
    -3.2060  -2.8596   0.0451   0.3354   0.4101   0.4934   0.5034   0.5262
     1.9203   2.1711   2.2352   2.4542   5.8780   6.2073   7.1717   7.3735
     7.4276   7.6542   8.0142

          k = 0.0000 0.1656 0.2348 ( 22562 PWs)   bands (ev):

   -26.8776 -26.8689 -26.8583 -26.8558 -26.7382 -26.7321 -10.5718 -10.5492
   -10.5211 -10.4970 -10.4557 -10.4434 -10.4004 -10.3825 -10.3724 -10.3672
   -10.3459 -10.3347 -10.2483 -10.2289 -10.1829 -10.1777 -10.1645 -10.1540
    -3.1231  -2.9202   0.0060   0.1894   0.4431   0.4731   0.5081   0.5177
     2.0892   2.2267   2.2788   2.3897   6.1732   6.3907   7.0521   7.1317
     7.5134   7.5411   7.9542

          k = 0.0000 0.1656-0.3523 ( 22574 PWs)   bands (ev):

   -26.8734 -26.8734 -26.8570 -26.8570 -26.7351 -26.7351 -10.5479 -10.5479
   -10.5253 -10.5253 -10.4481 -10.4481 -10.3850 -10.3850 -10.3633 -10.3633
   -10.3498 -10.3498 -10.2419 -10.2419 -10.1730 -10.1730 -10.1650 -10.1650
    -3.0162  -3.0162   0.0538   0.0538   0.4617   0.4617   0.5122   0.5122
     2.2286   2.2286   2.3119   2.3119   6.5085   6.5085   6.8411   6.8412
     7.7009   7.7010   7.8157

          k = 0.0000 0.3313 0.0000 ( 22565 PWs)   bands (ev):

   -26.8758 -26.8627 -26.8622 -26.8568 -26.7403 -26.7331 -10.5815 -10.5453
   -10.5242 -10.4865 -10.4712 -10.4433 -10.4326 -10.3977 -10.3780 -10.3608
   -10.3445 -10.3242 -10.2209 -10.2049 -10.1888 -10.1853 -10.1647 -10.1546
    -3.0771  -2.8416   0.1165   0.1344   0.2266   0.4496   0.4778   0.4907
     2.0505   2.2459   2.3083   2.4837   6.3761   6.5786   6.9623   7.3304
     7.5303   7.6414   7.9000

          k = 0.0000 0.3313 0.1174 ( 22571 PWs)   bands (ev):

   -26.8750 -26.8637 -26.8617 -26.8572 -26.7398 -26.7335 -10.5753 -10.5412
   -10.5231 -10.4878 -10.4739 -10.4529 -10.4205 -10.3935 -10.3814 -10.3635
   -10.3501 -10.3314 -10.2201 -10.2084 -10.1864 -10.1799 -10.1663 -10.1541
    -3.0546  -2.8487   0.0189   0.0882   0.3019   0.4538   0.4703   0.4782
     2.1168   2.2904   2.3209   2.4698   6.3623   6.6048   7.1004   7.3606
     7.4765   7.6042   7.8785

          k = 0.0000 0.3313 0.2348 ( 22574 PWs)   bands (ev):

   -26.8727 -26.8663 -26.8607 -26.8581 -26.7384 -26.7348 -10.5593 -10.5307
   -10.5254 -10.4966 -10.4733 -10.4589 -10.4096 -10.3871 -10.3812 -10.3744
   -10.3595 -10.3474 -10.2192 -10.2138 -10.1806 -10.1698 -10.1693 -10.1551
    -2.9967  -2.8756  -0.0806  -0.0166   0.3747   0.4414   0.4627   0.4713
     2.2506   2.3434   2.3742   2.4399   6.4011   6.5998   7.3139   7.4604
     7.4958   7.6301   7.8114

          k = 0.0000 0.3313-0.3523 ( 22578 PWs)   bands (ev):

   -26.8696 -26.8696 -26.8594 -26.8594 -26.7365 -26.7365 -10.5406 -10.5406
   -10.5127 -10.5127 -10.4653 -10.4653 -10.3964 -10.3964 -10.3788 -10.3788
   -10.3598 -10.3598 -10.2177 -10.2177 -10.1743 -10.1743 -10.1603 -10.1603
    -2.9283  -2.9283  -0.0934  -0.0934   0.4152   0.4152   0.4672   0.4672
     2.3381   2.3381   2.4168   2.4168   6.5089   6.5089   7.3953   7.3956
     7.6528   7.6530   7.8706

          k = 0.0000-0.4969 0.0000 ( 22572 PWs)   bands (ev):

   -26.8686 -26.8686 -26.8596 -26.8596 -26.7373 -26.7373 -10.5575 -10.5575
   -10.5112 -10.5112 -10.4745 -10.4745 -10.4024 -10.4024 -10.3726 -10.3726
   -10.3356 -10.3356 -10.2123 -10.2123 -10.1750 -10.1750 -10.1668 -10.1668
    -2.9173  -2.9173   0.0056   0.0056   0.3775   0.3775   0.4484   0.4484
     2.2068   2.2068   2.4319   2.4319   6.8539   6.8539   6.9831   6.9831
     7.4575   7.4575   8.0185

          k = 0.0000-0.4969 0.1174 ( 22558 PWs)   bands (ev):

   -26.8682 -26.8682 -26.8600 -26.8600 -26.7373 -26.7373 -10.5527 -10.5527
   -10.5099 -10.5099 -10.4748 -10.4748 -10.4011 -10.4011 -10.3742 -10.3742
   -10.3453 -10.3453 -10.2110 -10.2110 -10.1754 -10.1754 -10.1638 -10.1638
    -2.9084  -2.9084  -0.0490  -0.0490   0.3963   0.3963   0.4438   0.4438
     2.2624   2.2624   2.4316   2.4316   6.6841   6.6841   7.1947   7.1948
     7.5674   7.5675   7.9510

          k = 0.0000-0.4969 0.2348 ( 22578 PWs)   bands (ev):

   -26.8671 -26.8671 -26.8611 -26.8611 -26.7373 -26.7373 -10.5431 -10.5431
   -10.5071 -10.5071 -10.4724 -10.4724 -10.4020 -10.4020 -10.3793 -10.3793
   -10.3613 -10.3613 -10.2098 -10.2098 -10.1749 -10.1749 -10.1589 -10.1589
    -2.8902  -2.8902  -0.1457  -0.1457   0.4153   0.4153   0.4450   0.4450
     2.3582   2.3582   2.4432   2.4432   6.5677   6.5677   7.3262   7.3263
     7.7947   7.7951   7.9100

          k = 0.0000-0.4969-0.3523 ( 22548 PWs)   bands (ev):

   -26.8664 -26.8664 -26.8618 -26.8618 -26.7372 -26.7372 -10.5384 -10.5384
   -10.5054 -10.5054 -10.4688 -10.4688 -10.4060 -10.4060 -10.3848 -10.3848
   -10.3650 -10.3650 -10.2097 -10.2097 -10.1742 -10.1742 -10.1568 -10.1568
    -2.8809  -2.8809  -0.1900  -0.1900   0.4153   0.4153   0.4528   0.4528
     2.3845   2.3845   2.4692   2.4692   6.5383   6.5383   7.3026   7.3026
     7.9156   7.9158   8.0519

          k = 0.1667 0.0000 0.1158 ( 22528 PWs)   bands (ev):

   -26.8805 -26.8655 -26.8592 -26.8547 -26.7407 -26.7302 -10.5833 -10.5711
   -10.4932 -10.4854 -10.4504 -10.4498 -10.4101 -10.3959 -10.3773 -10.3773
   -10.3344 -10.3206 -10.2444 -10.2110 -10.2011 -10.1811 -10.1635 -10.1466
    -3.2074  -2.8561   0.0370   0.3400   0.4319   0.4909   0.5084   0.5188
     1.9023   2.1511   2.2439   2.4734   5.8761   6.2262   7.1803   7.2573
     7.5177   7.6000   7.9422

          k = 0.1667 0.0000 0.2332 ( 22558 PWs)   bands (ev):

   -26.8775 -26.8690 -26.8583 -26.8557 -26.7382 -26.7324 -10.5687 -10.5565
   -10.5203 -10.5016 -10.4506 -10.4413 -10.3971 -10.3892 -10.3704 -10.3677
   -10.3430 -10.3389 -10.2435 -10.2223 -10.1916 -10.1788 -10.1614 -10.1556
    -3.1264  -2.9149   0.0043   0.1885   0.4556   0.4750   0.5111   0.5161
     2.0659   2.1966   2.2916   2.4194   6.2061   6.4046   6.9966   7.0551
     7.5243   7.5961   7.8820

          k = 0.1667 0.0000 0.3506 ( 22577 PWs)   bands (ev):

   -26.8734 -26.8732 -26.8570 -26.8570 -26.7353 -26.7350 -10.5557 -10.5479
   -10.5236 -10.5227 -10.4521 -10.4415 -10.3838 -10.3788 -10.3733 -10.3608
   -10.3532 -10.3481 -10.2381 -10.2356 -10.1864 -10.1834 -10.1603 -10.1540
    -3.0203  -3.0102   0.0550   0.0593   0.4573   0.4663   0.5042   0.5216
     2.2079   2.2538   2.2729   2.3371   6.4831   6.6286   6.7808   6.7946
     7.6618   7.7215   7.7860

          k = 0.1667 0.0000-0.2365 ( 22585 PWs)   bands (ev):

   -26.8777 -26.8687 -26.8583 -26.8557 -26.7385 -26.7321 -10.5740 -10.5512
   -10.5158 -10.5004 -10.4543 -10.4431 -10.3945 -10.3925 -10.3775 -10.3602
   -10.3430 -10.3359 -10.2432 -10.2278 -10.1918 -10.1883 -10.1594 -10.1455
    -3.1179  -2.9237   0.0137   0.1972   0.4278   0.4781   0.4994   0.5248
     2.1157   2.2501   2.2510   2.3608   6.1437   6.4322   7.0723   7.1647
     7.4775   7.5051   7.9433

          k = 0.1667 0.0000-0.1191 ( 22607 PWs)   bands (ev):

   -26.8806 -26.8653 -26.8593 -26.8547 -26.7408 -26.7301 -10.5862 -10.5683
   -10.4881 -10.4804 -10.4606 -10.4480 -10.4104 -10.4001 -10.3842 -10.3677
   -10.3332 -10.3191 -10.2445 -10.2172 -10.1999 -10.1900 -10.1591 -10.1398
    -3.2026  -2.8612   0.0569   0.3375   0.3942   0.4979   0.5046   0.5255
     1.9399   2.1817   2.2141   2.4388   5.8654   6.2374   7.2104   7.3319
     7.4558   7.6549   7.9611

          k = 0.1667 0.0000-0.0016 ( 22546 PWs)   bands (ev):

   -26.8817 -26.8641 -26.8596 -26.8544 -26.7417 -26.7295 -10.5894 -10.5758
   -10.4750 -10.4695 -10.4619 -10.4587 -10.4195 -10.3910 -10.3843 -10.3808
   -10.3300 -10.3132 -10.2442 -10.2099 -10.2045 -10.1868 -10.1613 -10.1399
    -3.2360  -2.8390   0.0847   0.3912   0.3944   0.5010   0.5173   0.5285
     1.8427   2.1461   2.1947   2.4811   5.7596   6.1652   7.1577   7.2737
     7.5987   7.8930   7.9174

          k = 0.1667 0.1656 0.1158 ( 22565 PWs)   bands (ev):

   -26.8785 -26.8648 -26.8599 -26.8555 -26.7407 -26.7316 -10.5954 -10.5453
   -10.5117 -10.4929 -10.4649 -10.4430 -10.4216 -10.3946 -10.3750 -10.3702
   -10.3254 -10.3226 -10.2311 -10.2168 -10.2040 -10.1732 -10.1674 -10.1474
    -3.1520  -2.8457   0.0706   0.2366   0.4121   0.4408   0.4818   0.5169
     1.9398   2.1709   2.2727   2.4864   6.0930   6.4197   6.9254   7.2372
     7.5597   7.6225   8.0246

          k = 0.1667 0.1656 0.2332 ( 22570 PWs)   bands (ev):

   -26.8757 -26.8679 -26.8589 -26.8564 -26.7386 -26.7334 -10.5763 -10.5376
   -10.5243 -10.5056 -10.4629 -10.4511 -10.4086 -10.3869 -10.3756 -10.3654
   -10.3409 -10.3294 -10.2320 -10.2200 -10.1966 -10.1729 -10.1625 -10.1556
    -3.0791  -2.8941   0.0103   0.1413   0.4341   0.4494   0.4581   0.4917
     2.0848   2.2049   2.3429   2.4460   6.3594   6.5913   6.9856   6.9911
     7.4853   7.6915   7.8246

          k = 0.1667 0.1656 0.3506 ( 22569 PWs)   bands (ev):

   -26.8720 -26.8718 -26.8577 -26.8576 -26.7360 -26.7358 -10.5542 -10.5489
   -10.5211 -10.5163 -10.4662 -10.4528 -10.3932 -10.3864 -10.3797 -10.3664
   -10.3422 -10.3382 -10.2299 -10.2264 -10.1866 -10.1801 -10.1626 -10.1538
    -2.9852  -2.9758   0.0317   0.0441   0.4386   0.4438   0.4630   0.4786
     2.1966   2.2332   2.3603   2.3891   6.6700   6.7324   6.8209   6.8463
     7.4740   7.5886   7.9128

          k = 0.1667 0.1656-0.2365 ( 22577 PWs)   bands (ev):

   -26.8759 -26.8677 -26.8589 -26.8564 -26.7388 -26.7332 -10.5780 -10.5344
   -10.5222 -10.5019 -10.4711 -10.4495 -10.4013 -10.3980 -10.3780 -10.3575
   -10.3397 -10.3334 -10.2294 -10.2244 -10.1935 -10.1824 -10.1612 -10.1483
    -3.0710  -2.9022   0.0272   0.1304   0.4172   0.4374   0.4588   0.5057
     2.1399   2.2220   2.3215   2.3975   6.3516   6.5810   7.0036   7.1656
     7.2876   7.7211   7.8734

          k = 0.1667 0.1656-0.1191 ( 22575 PWs)   bands (ev):

   -26.8786 -26.8646 -26.8598 -26.8555 -26.7409 -26.7315 -10.5959 -10.5447
   -10.5092 -10.4866 -10.4699 -10.4480 -10.4188 -10.3977 -10.3768 -10.3661
   -10.3270 -10.3221 -10.2301 -10.2200 -10.2030 -10.1814 -10.1621 -10.1434
    -3.1474  -2.8503   0.0952   0.2206   0.4006   0.4092   0.4984   0.5250
     1.9826   2.1892   2.2468   2.4542   6.1045   6.4158   6.9407   7.3313
     7.5551   7.5777   7.8787

          k = 0.1667 0.1656-0.0016 ( 22535 PWs)   bands (ev):

   -26.8796 -26.8635 -26.8602 -26.8552 -26.7416 -26.7309 -10.6023 -10.5485
   -10.5084 -10.4846 -10.4569 -10.4524 -10.4267 -10.3915 -10.3788 -10.3727
   -10.3226 -10.3158 -10.2305 -10.2191 -10.2045 -10.1780 -10.1661 -10.1425
    -3.1779  -2.8321   0.1362   0.2560   0.3920   0.4072   0.5254   0.5300
     1.8889   2.1636   2.2187   2.4900   6.0051   6.3579   6.8808   7.3536
     7.5336   7.6418   8.1158

          k = 0.1667 0.3313 0.1158 ( 22563 PWs)   bands (ev):

   -26.8734 -26.8630 -26.8620 -26.8575 -26.7402 -26.7348 -10.5925 -10.5440
   -10.5249 -10.4955 -10.4841 -10.4588 -10.4260 -10.3806 -10.3636 -10.3591
   -10.3342 -10.3297 -10.2320 -10.2063 -10.1954 -10.1787 -10.1610 -10.1485
    -3.0196  -2.8398   0.0635   0.0718   0.3056   0.4444   0.4552   0.4989
     2.0367   2.2125   2.3244   2.4837   6.4734   6.7603   6.8237   7.1079
     7.6443   7.7967   8.0192

          k = 0.1667 0.3313 0.2332 ( 22559 PWs)   bands (ev):

   -26.8713 -26.8654 -26.8610 -26.8584 -26.7390 -26.7359 -10.5726 -10.5407
   -10.5244 -10.5038 -10.4817 -10.4668 -10.4129 -10.3872 -10.3718 -10.3641
   -10.3471 -10.3344 -10.2199 -10.2091 -10.1914 -10.1764 -10.1580 -10.1536
    -2.9694  -2.8602  -0.0303   0.0062   0.3663   0.4323   0.4367   0.4574
     2.1534   2.2582   2.3944   2.4713   6.5240   6.7286   7.0787   7.2553
     7.6462   7.8025   7.8398

          k = 0.1667 0.3313 0.3506 ( 22570 PWs)   bands (ev):

   -26.8685 -26.8683 -26.8597 -26.8596 -26.7375 -26.7374 -10.5520 -10.5496
   -10.5181 -10.5097 -10.4830 -10.4698 -10.4054 -10.3980 -10.3773 -10.3654
   -10.3479 -10.3392 -10.2138 -10.2122 -10.1830 -10.1742 -10.1640 -10.1542
    -2.9102  -2.9038  -0.0598  -0.0408   0.3825   0.4249   0.4318   0.4474
     2.2286   2.2818   2.4215   2.4510   6.6675   6.6824   7.1874   7.3486
     7.4907   7.6355   7.8006

          k = 0.1667 0.3313-0.2365 ( 22563 PWs)   bands (ev):

   -26.8713 -26.8654 -26.8608 -26.8584 -26.7391 -26.7358 -10.5734 -10.5400
   -10.5183 -10.4995 -10.4883 -10.4677 -10.4170 -10.3860 -10.3785 -10.3580
   -10.3459 -10.3381 -10.2195 -10.2087 -10.1826 -10.1762 -10.1642 -10.1541
    -2.9635  -2.8651  -0.0204  -0.0070   0.3374   0.4226   0.4411   0.4902
     2.1992   2.2678   2.3720   2.4381   6.6059   6.8098   7.0091   7.1403
     7.4393   7.8400   7.9225

          k = 0.1667 0.3313-0.1191 ( 22532 PWs)   bands (ev):

   -26.8734 -26.8633 -26.8616 -26.8575 -26.7403 -26.7347 -10.5924 -10.5433
   -10.5226 -10.4921 -10.4834 -10.4613 -10.4333 -10.3743 -10.3676 -10.3605
   -10.3342 -10.3316 -10.2308 -10.2058 -10.1910 -10.1736 -10.1666 -10.1503
    -3.0160  -2.8424   0.0429   0.0886   0.3061   0.4141   0.4674   0.5135
     2.0764   2.2211   2.3046   2.4572   6.5693   6.7145   6.8858   6.9824
     7.6085   7.7953   7.8723

          k = 0.1667 0.3313-0.0016 ( 22542 PWs)   bands (ev):

   -26.8741 -26.8626 -26.8618 -26.8572 -26.7408 -26.7344 -10.5998 -10.5471
   -10.5244 -10.4922 -10.4790 -10.4567 -10.4388 -10.3730 -10.3674 -10.3527
   -10.3303 -10.3247 -10.2384 -10.2055 -10.1954 -10.1757 -10.1660 -10.1473
    -3.0379  -2.8357   0.0750   0.1563   0.2727   0.4159   0.4965   0.5099
     1.9943   2.1790   2.2921   2.4789   6.5408   6.6351   6.8177   6.9943
     7.6478   7.7582   7.9956

          k = 0.1667-0.4969 0.1158 ( 22560 PWs)   bands (ev):

   -26.8672 -26.8672 -26.8600 -26.8600 -26.7382 -26.7382 -10.5732 -10.5732
   -10.5151 -10.5151 -10.4733 -10.4733 -10.3985 -10.3985 -10.3542 -10.3542
   -10.3414 -10.3414 -10.2188 -10.2188 -10.1841 -10.1841 -10.1519 -10.1519
    -2.8932  -2.8932  -0.0056  -0.0056   0.3749   0.3749   0.4738   0.4738
     2.1536   2.1536   2.4198   2.4198   6.5899   6.5900   7.2393   7.2393
     7.6262   7.6262   8.1390

          k = 0.1667-0.4969 0.2332 ( 22554 PWs)   bands (ev):

   -26.8662 -26.8662 -26.8611 -26.8611 -26.7382 -26.7382 -10.5596 -10.5596
   -10.5159 -10.5159 -10.4763 -10.4763 -10.3995 -10.3995 -10.3638 -10.3638
   -10.3503 -10.3503 -10.2094 -10.2094 -10.1835 -10.1835 -10.1528 -10.1528
    -2.8768  -2.8768  -0.0762  -0.0762   0.3826   0.3826   0.4517   0.4517
     2.2439   2.2439   2.4420   2.4420   6.5978   6.5978   7.4302   7.4303
     7.5853   7.5857   8.0742

          k = 0.1667-0.4969 0.3506 ( 22554 PWs)   bands (ev):

   -26.8655 -26.8655 -26.8618 -26.8618 -26.7382 -26.7382 -10.5531 -10.5531
   -10.5078 -10.5078 -10.4850 -10.4850 -10.4054 -10.4054 -10.3664 -10.3664
   -10.3525 -10.3525 -10.2065 -10.2065 -10.1776 -10.1776 -10.1570 -10.1570
    -2.8679  -2.8679  -0.1148  -0.1148   0.3847   0.3847   0.4473   0.4473
     2.2883   2.2883   2.4517   2.4517   6.6480   6.6482   7.3695   7.3697
     7.6662   7.6676   7.8511

          k = 0.1667-0.4969-0.2365 ( 22558 PWs)   bands (ev):

   -26.8662 -26.8662 -26.8610 -26.8610 -26.7382 -26.7382 -10.5597 -10.5597
   -10.5110 -10.5110 -10.4784 -10.4784 -10.4065 -10.4065 -10.3605 -10.3605
   -10.3508 -10.3508 -10.2092 -10.2092 -10.1744 -10.1744 -10.1604 -10.1604
    -2.8759  -2.8759  -0.0824  -0.0824   0.3688   0.3688   0.4702   0.4702
     2.2671   2.2671   2.4184   2.4184   6.6799   6.6799   7.2014   7.2015
     7.6311   7.6312   8.0048

          k = 0.1667-0.4969-0.1191 ( 22556 PWs)   bands (ev):

   -26.8672 -26.8672 -26.8600 -26.8600 -26.7382 -26.7382 -10.5729 -10.5729
   -10.5125 -10.5125 -10.4734 -10.4734 -10.4045 -10.4045 -10.3518 -10.3518
   -10.3427 -10.3427 -10.2174 -10.2174 -10.1774 -10.1774 -10.1580 -10.1580
    -2.8924  -2.8924  -0.0158  -0.0158   0.3931   0.3931   0.4632   0.4632
     2.1751   2.1751   2.3995   2.3995   6.6628   6.6628   7.0603   7.0603
     7.7299   7.7303   8.1404

          k = 0.1667-0.4969-0.0016 ( 22556 PWs)   bands (ev):

   -26.8676 -26.8676 -26.8596 -26.8596 -26.7382 -26.7382 -10.5792 -10.5792
   -10.5120 -10.5120 -10.4736 -10.4736 -10.4019 -10.4019 -10.3503 -10.3503
   -10.3336 -10.3336 -10.2242 -10.2242 -10.1811 -10.1811 -10.1542 -10.1542
    -2.9009  -2.9009   0.0207   0.0207   0.4114   0.4114   0.4544   0.4544
     2.1108   2.1108   2.4054   2.4054   6.6216   6.6216   7.0808   7.0808
     7.6811   7.6815   8.1610

          k = 0.3333 0.0000 0.2316 ( 22577 PWs)   bands (ev):

   -26.8723 -26.8665 -26.8604 -26.8579 -26.7385 -26.7353 -10.5555 -10.5552
   -10.5112 -10.5061 -10.4656 -10.4610 -10.4043 -10.3855 -10.3745 -10.3743
   -10.3606 -10.3512 -10.2073 -10.2067 -10.1981 -10.1905 -10.1539 -10.1512
    -3.0019  -2.8642  -0.0882  -0.0032   0.4053   0.4298   0.4609   0.4731
     2.2089   2.2970   2.3864   2.4972   6.4215   6.5664   7.3096   7.4190
     7.5521   7.6300   7.6855

          k = 0.3333 0.0000 0.3490 ( 22570 PWs)   bands (ev):

   -26.8697 -26.8689 -26.8595 -26.8591 -26.7371 -26.7366 -10.5594 -10.5441
   -10.5108 -10.5065 -10.4697 -10.4507 -10.3922 -10.3864 -10.3854 -10.3768
   -10.3631 -10.3629 -10.2069 -10.2043 -10.2002 -10.1955 -10.1550 -10.1435
    -2.9351  -2.9158  -0.0932  -0.0798   0.4014   0.4384   0.4530   0.4797
     2.3082   2.3340   2.3823   2.4652   6.4632   6.5897   7.3615   7.3913
     7.4752   7.5052   7.8941

          k = 0.3333 0.0000 0.4664 ( 22587 PWs)   bands (ev):

   -26.8728 -26.8655 -26.8611 -26.8578 -26.7389 -26.7349 -10.5666 -10.5400
   -10.5152 -10.5012 -10.4755 -10.4492 -10.4013 -10.3967 -10.3871 -10.3682
   -10.3552 -10.3476 -10.2091 -10.2027 -10.2006 -10.1990 -10.1574 -10.1400
    -2.9854  -2.8812  -0.0588  -0.0180   0.3469   0.4491   0.4696   0.4824
     2.2898   2.3077   2.3882   2.4030   6.3698   6.7035   7.2030   7.4220
     7.5039   7.5729   7.7440

          k = 0.3333 0.0000-0.1207 ( 22562 PWs)   bands (ev):

   -26.8750 -26.8629 -26.8622 -26.8567 -26.7403 -26.7337 -10.5701 -10.5524
   -10.5056 -10.5021 -10.4844 -10.4483 -10.4188 -10.3998 -10.3831 -10.3549
   -10.3491 -10.3273 -10.2163 -10.2035 -10.1979 -10.1939 -10.1635 -10.1403
    -3.0467  -2.8506   0.0536   0.0820   0.2655   0.4497   0.4773   0.5010
     2.1428   2.2457   2.3454   2.4463   6.3424   6.7115   7.1128   7.1890
     7.4525   7.6029   7.9604

          k = 0.3333 0.0000-0.0033 ( 22538 PWs)   bands (ev):

   -26.8757 -26.8633 -26.8615 -26.8564 -26.7407 -26.7334 -10.5685 -10.5610
   -10.5070 -10.5002 -10.4847 -10.4471 -10.4337 -10.3935 -10.3774 -10.3525
   -10.3466 -10.3200 -10.2197 -10.2047 -10.1959 -10.1831 -10.1706 -10.1443
    -3.0738  -2.8384   0.1078   0.1381   0.2482   0.4547   0.4693   0.4976
     2.0464   2.2314   2.3051   2.4903   6.3389   6.6624   6.9395   7.2587
     7.4896   7.6592   7.9104

          k = 0.3333 0.0000 0.1141 ( 22564 PWs)   bands (ev):

   -26.8747 -26.8643 -26.8611 -26.8568 -26.7400 -26.7340 -10.5635 -10.5598
   -10.5068 -10.5058 -10.4768 -10.4568 -10.4236 -10.3843 -10.3757 -10.3616
   -10.3533 -10.3293 -10.2146 -10.2059 -10.1957 -10.1848 -10.1628 -10.1500
    -3.0560  -2.8408  -0.0023   0.1029   0.3478   0.4506   0.4634   0.4730
     2.0815   2.2875   2.3060   2.5071   6.3316   6.6206   7.0873   7.2852
     7.5752   7.7127   7.8164

          k = 0.3333 0.1656 0.2316 ( 22562 PWs)   bands (ev):

   -26.8709 -26.8656 -26.8607 -26.8583 -26.7391 -26.7363 -10.5741 -10.5461
   -10.5235 -10.5104 -10.4824 -10.4547 -10.4150 -10.3820 -10.3754 -10.3635
   -10.3446 -10.3379 -10.2195 -10.2006 -10.1957 -10.1849 -10.1591 -10.1477
    -2.9720  -2.8530  -0.0364   0.0154   0.3540   0.4246   0.4501   0.4766
     2.1594   2.2205   2.4046   2.4792   6.5710   6.7378   7.0575   7.2098
     7.4639   7.6715   7.8902

          k = 0.3333 0.1656 0.3490 ( 22552 PWs)   bands (ev):

   -26.8685 -26.8679 -26.8597 -26.8595 -26.7379 -26.7374 -10.5609 -10.5512
   -10.5209 -10.5142 -10.4765 -10.4585 -10.4017 -10.3976 -10.3766 -10.3688
   -10.3488 -10.3402 -10.2088 -10.2030 -10.1967 -10.1900 -10.1579 -10.1454
    -2.9139  -2.8962  -0.0574  -0.0346   0.3902   0.4180   0.4350   0.4486
     2.2284   2.2698   2.4141   2.4576   6.6560   6.7095   7.1315   7.3329
     7.4622   7.6272   7.8343

          k = 0.3333 0.1656 0.4664 ( 22553 PWs)   bands (ev):

   -26.8714 -26.8648 -26.8611 -26.8582 -26.7395 -26.7359 -10.5776 -10.5371
   -10.5229 -10.5129 -10.4812 -10.4580 -10.4125 -10.3895 -10.3748 -10.3613
   -10.3473 -10.3351 -10.2182 -10.2004 -10.1959 -10.1908 -10.1590 -10.1425
    -2.9568  -2.8683  -0.0104  -0.0029   0.3404   0.4290   0.4481   0.4723
     2.1894   2.3021   2.3328   2.4414   6.5505   6.7861   7.0029   7.2183
     7.5443   7.7967   7.9067

          k = 0.3333 0.1656-0.1207 ( 22546 PWs)   bands (ev):

   -26.8734 -26.8626 -26.8621 -26.8572 -26.7407 -26.7349 -10.5923 -10.5394
   -10.5269 -10.5001 -10.4870 -10.4560 -10.4296 -10.3807 -10.3672 -10.3563
   -10.3341 -10.3262 -10.2344 -10.2011 -10.1954 -10.1854 -10.1631 -10.1408
    -3.0113  -2.8434   0.0486   0.1055   0.2844   0.4199   0.4736   0.5136
     2.0764   2.2208   2.2963   2.4547   6.5115   6.7777   6.8626   6.9762
     7.7566   7.7686   7.8557

          k = 0.3333 0.1656-0.0033 ( 22549 PWs)   bands (ev):

   -26.8741 -26.8630 -26.8613 -26.8569 -26.7410 -26.7346 -10.5977 -10.5449
   -10.5276 -10.4949 -10.4842 -10.4573 -10.4394 -10.3723 -10.3701 -10.3479
   -10.3311 -10.3194 -10.2421 -10.2015 -10.1961 -10.1833 -10.1626 -10.1430
    -3.0357  -2.8335   0.0730   0.1566   0.2873   0.4095   0.5009   0.5127
     1.9919   2.1757   2.2847   2.4816   6.5496   6.6212   6.8428   6.9402
     7.6634   7.7865   8.0470

          k = 0.3333 0.1656 0.1141 ( 22556 PWs)   bands (ev):

   -26.8732 -26.8636 -26.8613 -26.8573 -26.7404 -26.7351 -10.5911 -10.5439
   -10.5255 -10.5065 -10.4788 -10.4581 -10.4313 -10.3744 -10.3640 -10.3591
   -10.3349 -10.3276 -10.2344 -10.1991 -10.1959 -10.1851 -10.1584 -10.1477
    -3.0200  -2.8346   0.0371   0.0920   0.3205   0.4430   0.4560   0.5056
     2.0306   2.2001   2.3222   2.4931   6.5026   6.7458   6.8100   7.0736
     7.6597   7.7366   7.9192

          k = 0.3333 0.3313 0.2316 ( 22533 PWs)   bands (ev):

   -26.8677 -26.8634 -26.8618 -26.8593 -26.7401 -26.7385 -10.5853 -10.5709
   -10.5418 -10.5113 -10.4862 -10.4474 -10.4291 -10.3979 -10.3541 -10.3475
   -10.3295 -10.3218 -10.2265 -10.1977 -10.1918 -10.1842 -10.1566 -10.1464
    -2.9045  -2.8361   0.0218   0.1101   0.2448   0.4170   0.4432   0.4684
     2.0590   2.0843   2.4228   2.4519   6.6421   6.7091   7.0207   7.4092
     7.5336   7.8583   8.0093

          k = 0.3333 0.3313 0.3490 ( 22528 PWs)   bands (ev):

   -26.8658 -26.8655 -26.8606 -26.8604 -26.7394 -26.7392 -10.5759 -10.5732
   -10.5214 -10.5159 -10.4816 -10.4719 -10.4201 -10.4175 -10.3540 -10.3506
   -10.3278 -10.3253 -10.2050 -10.2012 -10.1912 -10.1825 -10.1614 -10.1502
    -2.8687  -2.8573   0.0327   0.0435   0.3205   0.3377   0.4339   0.4418
     2.0979   2.1431   2.4262   2.4673   6.8501   6.9049   7.0073   7.1217
     7.5941   7.7535   7.8484

          k = 0.3333 0.3313 0.4664 ( 22548 PWs)   bands (ev):

   -26.8679 -26.8634 -26.8616 -26.8594 -26.7404 -26.7382 -10.5876 -10.5687
   -10.5380 -10.5093 -10.4847 -10.4501 -10.4330 -10.4036 -10.3523 -10.3447
   -10.3292 -10.3249 -10.2239 -10.2016 -10.1843 -10.1821 -10.1600 -10.1481
    -2.8942  -2.8453   0.0127   0.1196   0.2276   0.4233   0.4519   0.4648
     2.0562   2.1323   2.3746   2.4569   6.6130   6.7111   7.1099   7.3756
     7.5762   7.8522   7.9139

          k = 0.3333 0.3313-0.1207 ( 22536 PWs)   bands (ev):

   -26.8695 -26.8629 -26.8613 -26.8585 -26.7411 -26.7376 -10.6026 -10.5731
   -10.5434 -10.5201 -10.4639 -10.4485 -10.4413 -10.3684 -10.3473 -10.3401
   -10.3256 -10.3244 -10.2522 -10.2147 -10.1826 -10.1785 -10.1559 -10.1424
    -2.9308  -2.8363   0.0061   0.1643   0.2647   0.4485   0.4952   0.5166
     1.9609   2.0488   2.3305   2.4404   6.3850   6.5324   7.1022   7.3961
     7.6989   8.0479   8.1186

          k = 0.3333 0.3313-0.0033 ( 22541 PWs)   bands (ev):

   -26.8700 -26.8632 -26.8608 -26.8582 -26.7413 -26.7374 -10.6091 -10.5781
   -10.5433 -10.5209 -10.4608 -10.4558 -10.4352 -10.3457 -10.3423 -10.3377
   -10.3283 -10.3181 -10.2714 -10.2241 -10.1835 -10.1785 -10.1504 -10.1410
    -2.9479  -2.8333   0.0072   0.1457   0.3691   0.4114   0.5320   0.5398
     1.8929   1.9940   2.3206   2.4437   6.3049   6.4696   7.0663   7.3661
     7.7752   8.0037   8.2042

          k = 0.3333 0.3313 0.1141 ( 22535 PWs)   bands (ev):

   -26.8694 -26.8628 -26.8616 -26.8585 -26.7409 -26.7377 -10.6018 -10.5745
   -10.5445 -10.5228 -10.4678 -10.4480 -10.4328 -10.3648 -10.3484 -10.3417
   -10.3269 -10.3199 -10.2556 -10.2145 -10.1867 -10.1813 -10.1491 -10.1439
    -2.9369  -2.8313   0.0162   0.1744   0.2381   0.4764   0.4899   0.5086
     1.9391   2.0293   2.3544   2.4529   6.3962   6.5380   7.0397   7.3989
     7.7526   7.9780   8.1346

          k = 0.3333-0.4969 0.2316 ( 22532 PWs)   bands (ev):

   -26.8643 -26.8643 -26.8610 -26.8610 -26.7401 -26.7401 -10.5881 -10.5881
   -10.5322 -10.5322 -10.4661 -10.4661 -10.4160 -10.4160 -10.3377 -10.3377
   -10.3261 -10.3261 -10.2152 -10.2152 -10.1847 -10.1847 -10.1493 -10.1493
    -2.8486  -2.8486   0.0743   0.0743   0.3326   0.3326   0.4528   0.4528
     2.0140   2.0140   2.4349   2.4349   6.5644   6.5644   7.3268   7.3268
     7.8664   7.8664   8.1755

          k = 0.3333-0.4969 0.3490 ( 22540 PWs)   bands (ev):

   -26.8636 -26.8636 -26.8617 -26.8617 -26.7401 -26.7401 -10.5863 -10.5863
   -10.5055 -10.5055 -10.4901 -10.4901 -10.4275 -10.4275 -10.3360 -10.3360
   -10.3278 -10.3278 -10.1990 -10.1990 -10.1874 -10.1874 -10.1560 -10.1560
    -2.8414  -2.8414   0.0774   0.0774   0.3007   0.3007   0.4317   0.4317
     2.0566   2.0566   2.4526   2.4526   6.7998   6.7998   7.1184   7.1184
     7.7785   7.7786   8.0476

          k = 0.3333-0.4969 0.4664 ( 22530 PWs)   bands (ev):

   -26.8644 -26.8644 -26.8609 -26.8609 -26.7401 -26.7401 -10.5884 -10.5884
   -10.5291 -10.5291 -10.4638 -10.4638 -10.4243 -10.4243 -10.3357 -10.3357
   -10.3269 -10.3269 -10.2142 -10.2142 -10.1786 -10.1786 -10.1545 -10.1545
    -2.8477  -2.8477   0.0698   0.0698   0.3073   0.3073   0.4820   0.4820
     2.0215   2.0215   2.4266   2.4266   6.5671   6.5671   7.4089   7.4090
     7.7203   7.7210   8.0866

          k = 0.3333-0.4969-0.1207 ( 22530 PWs)   bands (ev):

   -26.8653 -26.8653 -26.8600 -26.8600 -26.7401 -26.7401 -10.5963 -10.5963
   -10.5412 -10.5412 -10.4607 -10.4607 -10.3949 -10.3949 -10.3340 -10.3340
   -10.3250 -10.3250 -10.2400 -10.2400 -10.1757 -10.1757 -10.1471 -10.1471
    -2.8610  -2.8610   0.0433   0.0433   0.4034   0.4034   0.5180   0.5180
     1.9308   1.9308   2.3906   2.3906   6.3309   6.3309   7.5336   7.5338
     7.9223   7.9224   8.1764

          k = 0.3333-0.4969-0.0033 ( 22560 PWs)   bands (ev):

   -26.8656 -26.8656 -26.8597 -26.8597 -26.7401 -26.7401 -10.6017 -10.6017
   -10.5425 -10.5425 -10.4647 -10.4647 -10.3751 -10.3751 -10.3315 -10.3315
   -10.3229 -10.3229 -10.2576 -10.2576 -10.1761 -10.1761 -10.1425 -10.1425
    -2.8680  -2.8680   0.0334   0.0334   0.4889   0.4889   0.5012   0.5012
     1.8720   1.8720   2.3810   2.3810   6.2466   6.2466   7.5450   7.5452
     7.9454   7.9454   8.3365

          k = 0.3333-0.4969 0.1141 ( 22552 PWs)   bands (ev):

   -26.8652 -26.8652 -26.8601 -26.8601 -26.7401 -26.7401 -10.5963 -10.5963
   -10.5432 -10.5432 -10.4623 -10.4623 -10.3869 -10.3869 -10.3372 -10.3372
   -10.3236 -10.3236 -10.2426 -10.2426 -10.1794 -10.1794 -10.1434 -10.1434
    -2.8619  -2.8619   0.0520   0.0520   0.4059   0.4059   0.5091   0.5091
     1.9203   1.9203   2.4000   2.4000   6.3325   6.3325   7.5070   7.5071
     7.9088   7.9091   8.3740

          k =-0.5000 0.0000-0.3473 ( 22574 PWs)   bands (ev):

   -26.8668 -26.8646 -26.8629 -26.8612 -26.7380 -26.7374 -10.5616 -10.5439
   -10.5065 -10.5000 -10.4694 -10.4475 -10.3993 -10.3986 -10.3893 -10.3797
   -10.3740 -10.3660 -10.2081 -10.2001 -10.1954 -10.1892 -10.1530 -10.1387
    -2.8887  -2.8650  -0.1940  -0.1717   0.4015   0.4330   0.4490   0.4653
     2.3458   2.3727   2.4372   2.5291   6.5136   6.5607   7.2092   7.2645
     7.7598   7.9504   8.0386

          k =-0.5000 0.0000-0.2299 ( 22540 PWs)   bands (ev):

   -26.8674 -26.8661 -26.8614 -26.8605 -26.7380 -26.7375 -10.5600 -10.5429
   -10.5116 -10.5032 -10.4767 -10.4609 -10.4004 -10.3925 -10.3855 -10.3683
   -10.3647 -10.3637 -10.2087 -10.2011 -10.1954 -10.1884 -10.1545 -10.1411
    -2.8963  -2.8758  -0.1536  -0.1245   0.3914   0.4328   0.4484   0.4616
     2.3010   2.3772   2.3971   2.5064   6.5414   6.5592   7.3389   7.3447
     7.7410   7.7526   7.8038

          k =-0.5000 0.0000-0.1125 ( 22561 PWs)   bands (ev):

   -26.8683 -26.8678 -26.8598 -26.8595 -26.7379 -26.7376 -10.5544 -10.5394
   -10.5262 -10.5165 -10.4801 -10.4734 -10.4024 -10.3958 -10.3783 -10.3673
   -10.3426 -10.3420 -10.2094 -10.2042 -10.1946 -10.1885 -10.1562 -10.1470
    -2.9099  -2.8982  -0.0622  -0.0269   0.3744   0.4357   0.4392   0.4482
     2.2104   2.2838   2.4030   2.4730   6.6506   6.6526   7.1738   7.3350
     7.5269   7.6040   7.8203

          k =-0.5000 0.0000-0.6996 ( 22530 PWs)   bands (ev):

   -26.8686 -26.8686 -26.8591 -26.8591 -26.7378 -26.7378 -10.5434 -10.5434
   -10.5304 -10.5304 -10.4778 -10.4778 -10.4016 -10.4016 -10.3707 -10.3707
   -10.3320 -10.3320 -10.2079 -10.2079 -10.1918 -10.1918 -10.1533 -10.1533
    -2.9129  -2.9129   0.0065   0.0065   0.3960   0.3960   0.4414   0.4414
     2.1927   2.1927   2.4381   2.4381   6.8421   6.8421   6.9487   6.9487
     7.5367   7.5367   7.9584

          k =-0.5000 0.1656-0.3473 ( 22548 PWs)   bands (ev):

   -26.8659 -26.8639 -26.8628 -26.8613 -26.7388 -26.7383 -10.5651 -10.5546
   -10.5207 -10.5168 -10.4741 -10.4580 -10.4043 -10.4017 -10.3722 -10.3649
   -10.3575 -10.3499 -10.2061 -10.1994 -10.1944 -10.1865 -10.1563 -10.1416
    -2.8755  -2.8542  -0.1148  -0.1048   0.3776   0.4122   0.4325   0.4516
     2.2461   2.3587   2.3715   2.4859   6.6327   6.6678   7.1084   7.4799
     7.7150   7.7173   7.8794

          k =-0.5000 0.1656-0.2299 ( 22555 PWs)   bands (ev):

   -26.8666 -26.8653 -26.8614 -26.8605 -26.7388 -26.7383 -10.5711 -10.5549
   -10.5240 -10.5116 -10.4910 -10.4499 -10.4037 -10.3972 -10.3715 -10.3565
   -10.3524 -10.3487 -10.2160 -10.1988 -10.1915 -10.1858 -10.1577 -10.1413
    -2.8824  -2.8640  -0.0873  -0.0621   0.3615   0.3942   0.4559   0.4727
     2.2320   2.2624   2.4042   2.4560   6.6060   6.6379   7.1523   7.4488
     7.6024   7.6545   7.9376

          k =-0.5000 0.1656-0.1125 ( 22534 PWs)   bands (ev):

   -26.8675 -26.8669 -26.8599 -26.8594 -26.7387 -26.7385 -10.5783 -10.5640
   -10.5215 -10.5178 -10.4857 -10.4607 -10.4043 -10.3980 -10.3571 -10.3491
   -10.3415 -10.3366 -10.2270 -10.2104 -10.1869 -10.1849 -10.1553 -10.1432
    -2.8948  -2.8842  -0.0242   0.0084   0.3682   0.4037   0.4608   0.4867
     2.1429   2.1689   2.3959   2.4254   6.5945   6.6232   7.0641   7.1934
     7.7416   7.7895   8.0332

          k =-0.5000 0.1656-0.6996 ( 22554 PWs)   bands (ev):

   -26.8676 -26.8676 -26.8592 -26.8592 -26.7386 -26.7386 -10.5761 -10.5761
   -10.5184 -10.5184 -10.4750 -10.4750 -10.4028 -10.4028 -10.3504 -10.3504
   -10.3292 -10.3292 -10.2254 -10.2254 -10.1850 -10.1850 -10.1487 -10.1487
    -2.8975  -2.8975   0.0211   0.0211   0.4211   0.4211   0.4541   0.4541
     2.1045   2.1045   2.4048   2.4048   6.6207   6.6207   7.0340   7.0341
     7.7863   7.7868   8.1250

          k =-0.5000 0.3313-0.3473 ( 22522 PWs)   bands (ev):

   -26.8639 -26.8627 -26.8623 -26.8614 -26.7404 -26.7401 -10.5887 -10.5858
   -10.5206 -10.5126 -10.4794 -10.4709 -10.4307 -10.4292 -10.3365 -10.3346
   -10.3306 -10.3265 -10.2016 -10.1974 -10.1937 -10.1850 -10.1598 -10.1481
    -2.8470  -2.8336   0.0662   0.0885   0.3005   0.3203   0.4108   0.4397
     2.0187   2.1042   2.4117   2.4776   6.7862   6.8467   6.9670   7.1743
     7.7765   7.9478   8.0156

          k =-0.5000 0.3313-0.2299 ( 22518 PWs)   bands (ev):

   -26.8648 -26.8636 -26.8615 -26.8604 -26.7404 -26.7401 -10.5905 -10.5875
   -10.5430 -10.5166 -10.4839 -10.4437 -10.4234 -10.4181 -10.3424 -10.3312
   -10.3284 -10.3253 -10.2236 -10.2080 -10.1835 -10.1814 -10.1570 -10.1439
    -2.8528  -2.8413   0.0532   0.0944   0.2952   0.3524   0.4542   0.4761
     1.9909   2.0485   2.4029   2.4486   6.5542   6.5702   7.2455   7.4440
     7.7134   8.0334   8.0687

          k =-0.5000 0.3313-0.1125 ( 22515 PWs)   bands (ev):

   -26.8656 -26.8649 -26.8602 -26.8596 -26.7403 -26.7402 -10.5981 -10.5944
   -10.5482 -10.5371 -10.4694 -10.4546 -10.4020 -10.3769 -10.3449 -10.3274
   -10.3245 -10.3233 -10.2501 -10.2359 -10.1778 -10.1774 -10.1483 -10.1398
    -2.8637  -2.8570   0.0345   0.0618   0.3888   0.4254   0.5114   0.5169
     1.9182   1.9318   2.3856   2.4001   6.3268   6.3313   7.4300   7.5515
     7.9022   8.1283   8.1846

          k =-0.5000 0.3313-0.6996 ( 22520 PWs)   bands (ev):

   -26.8656 -26.8656 -26.8595 -26.8595 -26.7403 -26.7403 -10.6012 -10.6012
   -10.5435 -10.5435 -10.4648 -10.4648 -10.3782 -10.3782 -10.3282 -10.3282
   -10.3214 -10.3214 -10.2600 -10.2600 -10.1761 -10.1761 -10.1413 -10.1413
    -2.8669  -2.8669   0.0333   0.0333   0.4878   0.4878   0.5061   0.5061
     1.8713   1.8713   2.3788   2.3788   6.2449   6.2450   7.5070   7.5071
     8.0491   8.0494   8.3086

          k =-0.5000-0.4969-0.3473 ( 22544 PWs)   bands (ev):

   -26.8626 -26.8626 -26.8617 -26.8617 -26.7411 -26.7411 -10.6018 -10.6018
   -10.4992 -10.4992 -10.4888 -10.4888 -10.4446 -10.4446 -10.3202 -10.3202
   -10.3192 -10.3192 -10.1969 -10.1969 -10.1922 -10.1922 -10.1547 -10.1547
    -2.8278  -2.8278   0.2428   0.2428   0.2659   0.2659   0.3555   0.3555
     1.9364   1.9364   2.4545   2.4545   6.8133   6.8133   6.9847   6.9847
     8.0761   8.0761   8.2851

          k =-0.5000-0.4969-0.2299 ( 22512 PWs)   bands (ev):

   -26.8634 -26.8634 -26.8609 -26.8609 -26.7411 -26.7411 -10.6022 -10.6022
   -10.5331 -10.5331 -10.4601 -10.4601 -10.4309 -10.4309 -10.3212 -10.3212
   -10.3184 -10.3184 -10.2222 -10.2222 -10.1797 -10.1797 -10.1496 -10.1496
    -2.8338  -2.8338   0.1404   0.1404   0.3645   0.3645   0.4154   0.4154
     1.8937   1.8937   2.4312   2.4312   6.4732   6.4732   7.3985   7.3986
     8.0289   8.0291   8.3814

          k =-0.5000-0.4969-0.1125 ( 22524 PWs)   bands (ev):

   -26.8642 -26.8642 -26.8601 -26.8601 -26.7411 -26.7411 -10.6066 -10.6066
   -10.5503 -10.5503 -10.4660 -10.4660 -10.3791 -10.3791 -10.3232 -10.3232
   -10.3177 -10.3177 -10.2591 -10.2591 -10.1737 -10.1737 -10.1414 -10.1414
    -2.8457  -2.8457   0.0596   0.0596   0.4763   0.4763   0.5072   0.5072
     1.7930   1.7930   2.3902   2.3902   6.2000   6.2000   7.7547   7.7547
     8.0621   8.0625   8.4144

          k =-0.5000-0.4969-0.6996 ( 22540 PWs)   bands (ev):

   -26.8645 -26.8645 -26.8598 -26.8598 -26.7411 -26.7411 -10.6106 -10.6106
   -10.5522 -10.5522 -10.4713 -10.4713 -10.3348 -10.3348 -10.3347 -10.3347
   -10.3172 -10.3172 -10.2861 -10.2861 -10.1719 -10.1719 -10.1380 -10.1380
    -2.8516  -2.8516   0.0306   0.0306   0.5362   0.5362   0.5450   0.5450
     1.7335   1.7335   2.3722   2.3722   6.1035   6.1036   7.8214   7.8215
     8.0990   8.0992   8.4635

     the Fermi energy is     4.5553 ev

!    total energy              =    -771.38246312 Ry
     estimated scf accuracy    <          8.5E-09 Ry
     smearing contrib. (-TS)   =       0.00000000 Ry
     internal energy E=F+TS    =    -771.38246312 Ry

     The total energy is F=E-TS. E is the sum of the following terms:
     one-electron contribution =    -133.90704188 Ry
     hartree contribution      =      88.39576176 Ry
     xc contribution           =     -81.54534389 Ry
     ewald contribution        =    -242.48587231 Ry
     one-center paw contrib.   =    -401.83996680 Ry

     convergence has been achieved in   7 iterations

     Forces acting on atoms (cartesian axes, Ry/au):

     atom    1 type  3   force =     0.00006306   -0.00047224   -0.00005994
     atom    2 type  3   force =    -0.00006306    0.00047224    0.00005994
     atom    3 type  3   force =    -0.00006306   -0.00047224    0.00005994
     atom    4 type  3   force =     0.00006306    0.00047224   -0.00005994
     atom    5 type  3   force =     0.00000000    0.00000000    0.00000000
     atom    6 type  3   force =     0.00000000    0.00000000    0.00000000
     atom    7 type  1   force =     0.00000000    0.00000000    0.00000000
     atom    8 type  1   force =     0.00000000    0.00000000    0.00000000
     atom    9 type  2   force =     0.00187707    0.00254013   -0.00043823
     atom   10 type  2   force =    -0.00187707   -0.00254013    0.00043823
     atom   11 type  2   force =    -0.00187707    0.00254013    0.00043823
     atom   12 type  2   force =     0.00187707   -0.00254013   -0.00043823
     atom   13 type  2   force =     0.00241903    0.00204684   -0.00049667
     atom   14 type  2   force =    -0.00241903   -0.00204684    0.00049667
     atom   15 type  2   force =    -0.00241903    0.00204684    0.00049667
     atom   16 type  2   force =     0.00241903   -0.00204684   -0.00049667
     atom   17 type  2   force =     0.00082369    0.00010949    0.00317211
     atom   18 type  2   force =    -0.00082369   -0.00010949   -0.00317211
     atom   19 type  2   force =    -0.00082369    0.00010949   -0.00317211
     atom   20 type  2   force =     0.00082369   -0.00010949    0.00317211

     Total force =     0.011214     Total SCF correction =     0.000068


     Computing stress (Cartesian axis) and pressure

          total   stress  (Ry/bohr**3)                   (kbar)     P=        7.93
   0.00005314   0.00000000   0.00000006            7.82        0.00        0.01
   0.00000000   0.00005346   0.00000000            0.00        7.86        0.00
   0.00000006   0.00000000   0.00005511            0.01        0.00        8.11


     BFGS Geometry Optimization
     Energy error            =      0.0E+00 Ry
     Gradient error          =      3.2E-03 Ry/Bohr

     number of scf cycles    =   1
     number of bfgs steps    =   0

     energy             new  =    -771.3824631188 Ry

     new trust radius        =       0.0032791333 bohr
     new conv_thr            =       0.0000000100 Ry


ATOMIC_POSITIONS (crystal)
K             0.7429318977        0.5282684366        0.2490562602
K             0.2570681023        0.4717315634        0.7509437398
K             0.2570681023        0.0282684366        0.2509437398
K             0.7429318977        0.9717315634        0.7490562602
K            -0.0000000000        0.0000000000        0.5000000000
K             0.0000000000        0.5000000000        0.0000000000
Al            0.5000000000        0.0000000000        0.0000000000
Al            0.5000000000        0.5000000000        0.5000000000
H             0.6313192772        0.7384535666        0.4642026564
H             0.3686807228        0.2615464334        0.5357973436
H             0.3686807228        0.2384535666        0.0357973436
H             0.6313192772        0.7615464334        0.9642026564
H             0.7075736796        0.1713101507        0.9708890100
H             0.2924263204        0.8286898493        0.0291109900
H             0.2924263204        0.6713101507        0.5291109900
H             0.7075736796        0.3286898493        0.4708890100
H             0.7622481112        0.5194696368        0.7031779269
H             0.2377518888        0.4805303632        0.2968220731
H             0.2377518888        0.0194696368        0.7968220731
H             0.7622481112        0.9805303632        0.2031779269



     Writing config-only to output data dir ./k3alh6.save/
     NEW-OLD atomic charge density approx. for the potential

     Check: negative core charge=   -0.000002

     total cpu time spent up to now is       19.9 secs

     Self-consistent Calculation

     iteration #  1     ecut=    75.00 Ry     beta= 0.70
     Davidson diagonalization with overlap
     ethr =  1.00E-06,  avg # of iterations =  2.0

     Threshold (ethr) on eigenvalues was too large:
     Diagonalizing with lowered threshold

     Davidson diagonalization with overlap
     ethr =  1.66E-08,  avg # of iterations =  2.0

     total cpu time spent up to now is       23.1 secs

     total energy              =    -771.38257273 Ry
     estimated scf accuracy    <       0.00001487 Ry

     iteration #  2     ecut=    75.00 Ry     beta= 0.70
     Davidson diagonalization with overlap
     ethr =  2.06E-08,  avg # of iterations =  2.0

     total cpu time spent up to now is       24.7 secs

     total energy              =    -771.38257677 Ry
     estimated scf accuracy    <       0.00000337 Ry

     iteration #  3     ecut=    75.00 Ry     beta= 0.70
     Davidson diagonalization with overlap
     ethr =  4.68E-09,  avg # of iterations =  2.1

     total cpu time spent up to now is       26.3 secs

     total energy              =    -771.38257739 Ry
     estimated scf accuracy    <       0.00000003 Ry

     iteration #  4     ecut=    75.00 Ry     beta= 0.70
     Davidson diagonalization with overlap
     ethr =  4.67E-11,  avg # of iterations =  4.2

     total cpu time spent up to now is       28.5 secs

     End of self-consistent calculation

          k = 0.0000 0.0000 0.0000 ( 22501 PWs)   bands (ev):

   -26.8825 -26.8636 -26.8575 -26.8524 -26.7379 -26.7242 -10.5954 -10.5780
   -10.4682 -10.4564 -10.4426 -10.4224 -10.4209 -10.4208 -10.4166 -10.3230
   -10.3223 -10.3174 -10.2910 -10.2114 -10.1930 -10.1872 -10.1511 -10.1355
    -3.2993  -2.8449   0.0306   0.5195   0.5231   0.5271   0.5501   0.5622
     1.7239   2.0691   2.1614   2.4645   5.5045   5.9509   7.2551   7.3090
     7.5212   8.0165   8.0199

          k = 0.0000 0.0000 0.1174 ( 22553 PWs)   bands (ev):

   -26.8814 -26.8650 -26.8572 -26.8528 -26.7369 -26.7250 -10.5900 -10.5721
   -10.4876 -10.4648 -10.4524 -10.4257 -10.4103 -10.4068 -10.3984 -10.3270
   -10.3258 -10.3206 -10.2890 -10.2173 -10.1893 -10.1842 -10.1532 -10.1400
    -3.2653  -2.8692   0.0124   0.4401   0.5210   0.5276   0.5479   0.5579
     1.8110   2.0935   2.1902   2.4350   5.6410   6.0266   7.2887   7.3326
     7.3776   7.7098   8.0828

          k = 0.0000 0.0000 0.2348 ( 22550 PWs)   bands (ev):

   -26.8781 -26.8687 -26.8563 -26.8537 -26.7341 -26.7273 -10.5743 -10.5551
   -10.5193 -10.4976 -10.4445 -10.4297 -10.3928 -10.3843 -10.3747 -10.3380
   -10.3349 -10.3326 -10.2782 -10.2342 -10.1799 -10.1759 -10.1593 -10.1510
    -3.1736  -2.9419   0.0086   0.2564   0.5253   0.5303   0.5441   0.5500
     1.9978   2.1617   2.2173   2.3572   6.0152   6.2453   6.9804   7.0759
     7.5021   7.5448   7.9468

          k = 0.0000 0.0000-0.3523 ( 22576 PWs)   bands (ev):

   -26.8735 -26.8735 -26.8550 -26.8550 -26.7306 -26.7306 -10.5498 -10.5498
   -10.5291 -10.5291 -10.4361 -10.4361 -10.3760 -10.3760 -10.3544 -10.3544
   -10.3429 -10.3429 -10.2575 -10.2575 -10.1688 -10.1688 -10.1640 -10.1640
    -3.0532  -3.0532   0.0892   0.0892   0.5301   0.5301   0.5438   0.5438
     2.1573   2.1573   2.2574   2.2574   6.5188   6.5188   6.5981   6.5982
     7.6775   7.6789   7.7895

          k = 0.0000 0.1656 0.0000 ( 22521 PWs)   bands (ev):

   -26.8803 -26.8629 -26.8584 -26.8533 -26.7377 -26.7257 -10.5922 -10.5686
   -10.4846 -10.4640 -10.4580 -10.4439 -10.4153 -10.3947 -10.3857 -10.3787
   -10.3292 -10.3141 -10.2444 -10.2068 -10.1947 -10.1904 -10.1542 -10.1408
    -3.2336  -2.8356   0.0859   0.3869   0.3895   0.4993   0.5222   0.5318
     1.8384   2.1482   2.1972   2.4763   5.7679   6.1415   7.1213   7.3310
     7.5915   7.7855   8.1902

          k = 0.0000 0.1656 0.1174 ( 22552 PWs)   bands (ev):

   -26.8792 -26.8642 -26.8580 -26.8536 -26.7368 -26.7264 -10.5863 -10.5631
   -10.4956 -10.4690 -10.4580 -10.4478 -10.4014 -10.3980 -10.3826 -10.3720
   -10.3334 -10.3195 -10.2455 -10.2132 -10.1894 -10.1861 -10.1562 -10.1436
    -3.2025  -2.8553   0.0458   0.3363   0.4110   0.4945   0.5047   0.5274
     1.9172   2.1681   2.2323   2.4513   5.8775   6.2074   7.1717   7.3734
     7.4273   7.6528   8.0136

          k = 0.0000 0.1656 0.2348 ( 22562 PWs)   bands (ev):

   -26.8762 -26.8676 -26.8571 -26.8545 -26.7344 -26.7284 -10.5698 -10.5474
   -10.5191 -10.4952 -10.4541 -10.4418 -10.3991 -10.3811 -10.3711 -10.3658
   -10.3447 -10.3336 -10.2455 -10.2261 -10.1803 -10.1751 -10.1618 -10.1513
    -3.1194  -2.9160   0.0064   0.1901   0.4440   0.4741   0.5093   0.5189
     2.0863   2.2238   2.2761   2.3867   6.1728   6.3907   7.0522   7.1308
     7.5133   7.5409   7.9538

          k = 0.0000 0.1656-0.3523 ( 22574 PWs)   bands (ev):

   -26.8720 -26.8720 -26.8558 -26.8558 -26.7313 -26.7313 -10.5459 -10.5459
   -10.5235 -10.5235 -10.4464 -10.4464 -10.3838 -10.3838 -10.3619 -10.3619
   -10.3486 -10.3486 -10.2390 -10.2390 -10.1703 -10.1703 -10.1624 -10.1624
    -3.0122  -3.0122   0.0542   0.0542   0.4627   0.4627   0.5135   0.5135
     2.2258   2.2258   2.3089   2.3089   6.5081   6.5081   6.8412   6.8412
     7.7008   7.7009   7.8153

          k = 0.0000 0.3313 0.0000 ( 22565 PWs)   bands (ev):

   -26.8744 -26.8614 -26.8609 -26.8556 -26.7365 -26.7294 -10.5796 -10.5434
   -10.5222 -10.4847 -10.4693 -10.4414 -10.4314 -10.3965 -10.3768 -10.3595
   -10.3433 -10.3230 -10.2181 -10.2021 -10.1863 -10.1827 -10.1619 -10.1520
    -3.0733  -2.8371   0.1166   0.1348   0.2277   0.4506   0.4788   0.4920
     2.0474   2.2429   2.3056   2.4810   6.3758   6.5784   6.9627   7.3303
     7.5313   7.6410   7.8974

          k = 0.0000 0.3313 0.1174 ( 22571 PWs)   bands (ev):

   -26.8736 -26.8625 -26.8605 -26.8559 -26.7360 -26.7298 -10.5734 -10.5393
   -10.5211 -10.4859 -10.4720 -10.4512 -10.4191 -10.3923 -10.3802 -10.3623
   -10.3489 -10.3302 -10.2173 -10.2056 -10.1838 -10.1773 -10.1635 -10.1514
    -3.0507  -2.8443   0.0190   0.0886   0.3028   0.4548   0.4714   0.4794
     2.1138   2.2876   2.3182   2.4671   6.3620   6.6045   7.1009   7.3606
     7.4762   7.6039   7.8782

          k = 0.0000 0.3313 0.2348 ( 22574 PWs)   bands (ev):

   -26.8714 -26.8650 -26.8595 -26.8568 -26.7346 -26.7310 -10.5573 -10.5287
   -10.5234 -10.4947 -10.4715 -10.4571 -10.4083 -10.3859 -10.3799 -10.3732
   -10.3583 -10.3462 -10.2164 -10.2110 -10.1780 -10.1671 -10.1667 -10.1525
    -2.9926  -2.8712  -0.0806  -0.0164   0.3756   0.4423   0.4637   0.4723
     2.2479   2.3407   2.3716   2.4372   6.4006   6.5992   7.3136   7.4608
     7.4955   7.6295   7.8105

          k = 0.0000 0.3313-0.3523 ( 22578 PWs)   bands (ev):

   -26.8682 -26.8682 -26.8581 -26.8581 -26.7328 -26.7328 -10.5385 -10.5385
   -10.5108 -10.5108 -10.4635 -10.4635 -10.3952 -10.3952 -10.3775 -10.3775
   -10.3586 -10.3586 -10.2149 -10.2149 -10.1716 -10.1716 -10.1577 -10.1577
    -2.9241  -2.9241  -0.0934  -0.0934   0.4161   0.4161   0.4682   0.4682
     2.3354   2.3354   2.4142   2.4142   6.5083   6.5083   7.3948   7.3950
     7.6530   7.6531   7.8701

          k = 0.0000-0.4969 0.0000 ( 22572 PWs)   bands (ev):

   -26.8673 -26.8673 -26.8583 -26.8583 -26.7335 -26.7335 -10.5556 -10.5556
   -10.5093 -10.5093 -10.4727 -10.4727 -10.4012 -10.4012 -10.3714 -10.3714
   -10.3344 -10.3344 -10.2095 -10.2095 -10.1723 -10.1723 -10.1642 -10.1642
    -2.9130  -2.9130   0.0056   0.0056   0.3787   0.3787   0.4493   0.4493
     2.2038   2.2038   2.4294   2.4294   6.8532   6.8532   6.9838   6.9838
     7.4571   7.4572   8.0179

          k = 0.0000-0.4969 0.1174 ( 22558 PWs)   bands (ev):

   -26.8668 -26.8668 -26.8587 -26.8587 -26.7335 -26.7335 -10.5507 -10.5507
   -10.5080 -10.5080 -10.4729 -10.4729 -10.3999 -10.3999 -10.3730 -10.3730
   -10.3440 -10.3440 -10.2082 -10.2082 -10.1727 -10.1727 -10.1612 -10.1612
    -2.9041  -2.9041  -0.0490  -0.0490   0.3974   0.3974   0.4447   0.4447
     2.2596   2.2596   2.4290   2.4290   6.6836   6.6836   7.1945   7.1946
     7.5679   7.5679   7.9504

          k = 0.0000-0.4969 0.2348 ( 22578 PWs)   bands (ev):

   -26.8658 -26.8658 -26.8598 -26.8598 -26.7335 -26.7335 -10.5410 -10.5410
   -10.5052 -10.5052 -10.4706 -10.4706 -10.4008 -10.4008 -10.3781 -10.3781
   -10.3601 -10.3601 -10.2070 -10.2070 -10.1722 -10.1722 -10.1563 -10.1563
    -2.8858  -2.8858  -0.1458  -0.1458   0.4162   0.4162   0.4460   0.4460
     2.3556   2.3556   2.4406   2.4406   6.5670   6.5670   7.3251   7.3251
     7.7956   7.7961   7.9099

          k = 0.0000-0.4969-0.3523 ( 22548 PWs)   bands (ev):

   -26.8651 -26.8651 -26.8605 -26.8605 -26.7335 -26.7335 -10.5363 -10.5363
   -10.5035 -10.5035 -10.4670 -10.4670 -10.4048 -10.4048 -10.3836 -10.3836
   -10.3639 -10.3639 -10.2070 -10.2070 -10.1716 -10.1716 -10.1542 -10.1542
    -2.8765  -2.8765  -0.1902  -0.1902   0.4161   0.4161   0.4538   0.4538
     2.3819   2.3819   2.4667   2.4667   6.5375   6.5375   7.3014   7.3014
     7.9153   7.9154   8.0525

          k = 0.1667 0.0000 0.1158 ( 22528 PWs)   bands (ev):

   -26.8791 -26.8643 -26.8580 -26.8535 -26.7368 -26.7266 -10.5814 -10.5692
   -10.4912 -10.4836 -10.4490 -10.4480 -10.4086 -10.3946 -10.3760 -10.3755
   -10.3332 -10.3195 -10.2417 -10.2082 -10.1984 -10.1786 -10.1607 -10.1440
    -3.2039  -2.8518   0.0377   0.3410   0.4329   0.4923   0.5095   0.5199
     1.8991   2.1481   2.2410   2.4704   5.8756   6.2264   7.1804   7.2568
     7.5177   7.5995   7.9414

          k = 0.1667 0.0000 0.2332 ( 22558 PWs)   bands (ev):

   -26.8760 -26.8677 -26.8570 -26.8545 -26.7344 -26.7287 -10.5667 -10.5546
   -10.5183 -10.4997 -10.4490 -10.4394 -10.3958 -10.3878 -10.3691 -10.3662
   -10.3418 -10.3377 -10.2407 -10.2195 -10.1889 -10.1762 -10.1587 -10.1529
    -3.1227  -2.9107   0.0049   0.1892   0.4567   0.4762   0.5121   0.5172
     2.0629   2.1936   2.2889   2.4164   6.2055   6.4047   6.9960   7.0553
     7.5242   7.5960   7.8804

          k = 0.1667 0.0000 0.3506 ( 22577 PWs)   bands (ev):

   -26.8721 -26.8718 -26.8558 -26.8557 -26.7316 -26.7313 -10.5537 -10.5459
   -10.5218 -10.5208 -10.4504 -10.4398 -10.3826 -10.3775 -10.3719 -10.3596
   -10.3519 -10.3469 -10.2353 -10.2328 -10.1837 -10.1807 -10.1577 -10.1514
    -3.0163  -3.0063   0.0554   0.0599   0.4585   0.4673   0.5052   0.5227
     2.2052   2.2511   2.2699   2.3341   6.4828   6.6280   6.7807   6.7947
     7.6605   7.7215   7.7856

          k = 0.1667 0.0000-0.2365 ( 22585 PWs)   bands (ev):

   -26.8763 -26.8674 -26.8571 -26.8544 -26.7347 -26.7284 -10.5720 -10.5493
   -10.5139 -10.4985 -10.4524 -10.4416 -10.3933 -10.3911 -10.3759 -10.3590
   -10.3418 -10.3347 -10.2404 -10.2250 -10.1891 -10.1857 -10.1568 -10.1429
    -3.1142  -2.9194   0.0141   0.1980   0.4289   0.4791   0.5004   0.5259
     2.1128   2.2472   2.2483   2.3578   6.1434   6.4324   7.0724   7.1629
     7.4770   7.5052   7.9423

          k = 0.1667 0.0000-0.1191 ( 22607 PWs)   bands (ev):

   -26.8792 -26.8641 -26.8580 -26.8535 -26.7370 -26.7265 -10.5842 -10.5665
   -10.4861 -10.4785 -10.4588 -10.4466 -10.4091 -10.3988 -10.3823 -10.3663
   -10.3320 -10.3179 -10.2418 -10.2145 -10.1972 -10.1874 -10.1564 -10.1371
    -3.1990  -2.8569   0.0576   0.3386   0.3951   0.4989   0.5058   0.5266
     1.9368   2.1787   2.2112   2.4358   5.8650   6.2376   7.2104   7.3317
     7.4557   7.6528   7.9603

          k = 0.1667 0.0000-0.0016 ( 22546 PWs)   bands (ev):

   -26.8802 -26.8629 -26.8584 -26.8531 -26.7378 -26.7258 -10.5874 -10.5740
   -10.4732 -10.4673 -10.4601 -10.4575 -10.4183 -10.3896 -10.3823 -10.3794
   -10.3289 -10.3121 -10.2415 -10.2072 -10.2018 -10.1842 -10.1585 -10.1373
    -3.2325  -2.8346   0.0856   0.3923   0.3953   0.5020   0.5185   0.5298
     1.8394   2.1431   2.1917   2.4782   5.7590   6.1654   7.1576   7.2736
     7.5987   7.8921   7.9169

          k = 0.1667 0.1656 0.1158 ( 22565 PWs)   bands (ev):

   -26.8771 -26.8635 -26.8586 -26.8543 -26.7369 -26.7279 -10.5935 -10.5433
   -10.5097 -10.4912 -10.4633 -10.4413 -10.4200 -10.3934 -10.3737 -10.3688
   -10.3242 -10.3214 -10.2283 -10.2141 -10.2013 -10.1706 -10.1647 -10.1448
    -3.1484  -2.8413   0.0712   0.2372   0.4131   0.4417   0.4830   0.5182
     1.9365   2.1679   2.2698   2.4836   6.0926   6.4199   6.9254   7.2370
     7.5596   7.6224   8.0236

          k = 0.1667 0.1656 0.2332 ( 22570 PWs)   bands (ev):

   -26.8743 -26.8666 -26.8577 -26.8552 -26.7348 -26.7297 -10.5743 -10.5356
   -10.5223 -10.5038 -10.4612 -10.4492 -10.4073 -10.3857 -10.3744 -10.3641
   -10.3397 -10.3282 -10.2291 -10.2171 -10.1940 -10.1702 -10.1599 -10.1530
    -3.0753  -2.8899   0.0107   0.1418   0.4351   0.4504   0.4591   0.4930
     2.0817   2.2019   2.3402   2.4432   6.3591   6.5914   6.9858   6.9907
     7.4852   7.6912   7.8240

          k = 0.1667 0.1656 0.3506 ( 22569 PWs)   bands (ev):

   -26.8707 -26.8704 -26.8564 -26.8564 -26.7323 -26.7320 -10.5522 -10.5469
   -10.5193 -10.5144 -10.4644 -10.4510 -10.3919 -10.3852 -10.3785 -10.3653
   -10.3409 -10.3370 -10.2270 -10.2236 -10.1839 -10.1775 -10.1600 -10.1512
    -2.9812  -2.9717   0.0321   0.0444   0.4396   0.4448   0.4641   0.4797
     2.1936   2.2302   2.3577   2.3864   6.6696   6.7322   6.8211   6.8461
     7.4735   7.5881   7.9118

          k = 0.1667 0.1656-0.2365 ( 22577 PWs)   bands (ev):

   -26.8745 -26.8664 -26.8577 -26.8552 -26.7350 -26.7295 -10.5761 -10.5325
   -10.5203 -10.5001 -10.4693 -10.4478 -10.3999 -10.3969 -10.3767 -10.3562
   -10.3385 -10.3322 -10.2266 -10.2216 -10.1908 -10.1797 -10.1586 -10.1457
    -3.0672  -2.8979   0.0275   0.1310   0.4183   0.4383   0.4598   0.5069
     2.1370   2.2190   2.3188   2.3947   6.3513   6.5812   7.0035   7.1646
     7.2873   7.7203   7.8726

          k = 0.1667 0.1656-0.1191 ( 22575 PWs)   bands (ev):

   -26.8772 -26.8634 -26.8586 -26.8543 -26.7370 -26.7278 -10.5940 -10.5428
   -10.5072 -10.4849 -10.4681 -10.4465 -10.4172 -10.3964 -10.3754 -10.3648
   -10.3257 -10.3209 -10.2273 -10.2173 -10.2003 -10.1787 -10.1594 -10.1408
    -3.1437  -2.8459   0.0958   0.2213   0.4016   0.4100   0.4996   0.5263
     1.9794   2.1862   2.2439   2.4514   6.1041   6.4161   6.9407   7.3311
     7.5548   7.5776   7.8761

          k = 0.1667 0.1656-0.0016 ( 22535 PWs)   bands (ev):

   -26.8781 -26.8623 -26.8589 -26.8539 -26.7378 -26.7272 -10.6004 -10.5466
   -10.5065 -10.4828 -10.4554 -10.4507 -10.4249 -10.3902 -10.3774 -10.3713
   -10.3214 -10.3146 -10.2278 -10.2165 -10.2017 -10.1754 -10.1633 -10.1398
    -3.1743  -2.8277   0.1372   0.2567   0.3926   0.4083   0.5267   0.5314
     1.8856   2.1607   2.2156   2.4872   6.0047   6.3581   6.8807   7.3538
     7.5335   7.6418   8.1101

          k = 0.1667 0.3313 0.1158 ( 22563 PWs)   bands (ev):

   -26.8720 -26.8618 -26.8607 -26.8563 -26.7364 -26.7311 -10.5905 -10.5420
   -10.5231 -10.4937 -10.4824 -10.4570 -10.4247 -10.3794 -10.3623 -10.3578
   -10.3329 -10.3285 -10.2292 -10.2035 -10.1927 -10.1760 -10.1584 -10.1458
    -3.0156  -2.8354   0.0638   0.0720   0.3066   0.4454   0.4564   0.5000
     2.0336   2.2097   2.3214   2.4810   6.4734   6.7600   6.8237   7.1085
     7.6438   7.7959   8.0188

          k = 0.1667 0.3313 0.2332 ( 22559 PWs)   bands (ev):

   -26.8699 -26.8641 -26.8598 -26.8571 -26.7352 -26.7322 -10.5707 -10.5387
   -10.5226 -10.5019 -10.4799 -10.4650 -10.4116 -10.3860 -10.3706 -10.3629
   -10.3459 -10.3332 -10.2171 -10.2062 -10.1888 -10.1738 -10.1554 -10.1509
    -2.9653  -2.8558  -0.0303   0.0064   0.3673   0.4334   0.4376   0.4584
     2.1504   2.2554   2.3918   2.4687   6.5238   6.7282   7.0787   7.2555
     7.6471   7.8023   7.8388

          k = 0.1667 0.3313 0.3506 ( 22570 PWs)   bands (ev):

   -26.8671 -26.8670 -26.8585 -26.8583 -26.7337 -26.7336 -10.5500 -10.5476
   -10.5162 -10.5077 -10.4812 -10.4679 -10.4042 -10.3968 -10.3762 -10.3643
   -10.3467 -10.3379 -10.2110 -10.2094 -10.1803 -10.1715 -10.1614 -10.1516
    -2.9059  -2.8995  -0.0598  -0.0408   0.3834   0.4258   0.4328   0.4485
     2.2257   2.2789   2.4190   2.4484   6.6671   6.6819   7.1868   7.3498
     7.4910   7.6350   7.7997

          k = 0.1667 0.3313-0.2365 ( 22563 PWs)   bands (ev):

   -26.8700 -26.8641 -26.8596 -26.8572 -26.7353 -26.7321 -10.5714 -10.5381
   -10.5163 -10.4976 -10.4865 -10.4659 -10.4158 -10.3847 -10.3773 -10.3568
   -10.3447 -10.3369 -10.2167 -10.2059 -10.1800 -10.1735 -10.1615 -10.1515
    -2.9594  -2.8607  -0.0203  -0.0069   0.3383   0.4235   0.4421   0.4914
     2.1962   2.2649   2.3693   2.4355   6.6052   6.8096   7.0095   7.1401
     7.4398   7.8381   7.9209

          k = 0.1667 0.3313-0.1191 ( 22532 PWs)   bands (ev):

   -26.8720 -26.8620 -26.8603 -26.8563 -26.7365 -26.7310 -10.5905 -10.5414
   -10.5207 -10.4903 -10.4815 -10.4595 -10.4320 -10.3730 -10.3663 -10.3592
   -10.3330 -10.3304 -10.2281 -10.2031 -10.1884 -10.1709 -10.1640 -10.1477
    -3.0120  -2.8379   0.0432   0.0889   0.3070   0.4150   0.4684   0.5148
     2.0734   2.2183   2.3017   2.4545   6.5687   6.7147   6.8858   6.9824
     7.6090   7.7955   7.8694

          k = 0.1667 0.3313-0.0016 ( 22542 PWs)   bands (ev):

   -26.8728 -26.8614 -26.8605 -26.8560 -26.7369 -26.7307 -10.5979 -10.5451
   -10.5225 -10.4904 -10.4771 -10.4549 -10.4375 -10.3717 -10.3661 -10.3514
   -10.3290 -10.3235 -10.2356 -10.2027 -10.1927 -10.1730 -10.1634 -10.1446
    -3.0340  -2.8312   0.0754   0.1567   0.2738   0.4168   0.4977   0.5112
     1.9911   2.1762   2.2891   2.4762   6.5407   6.6348   6.8177   6.9949
     7.6477   7.7574   7.9925

          k = 0.1667-0.4969 0.1158 ( 22560 PWs)   bands (ev):

   -26.8659 -26.8659 -26.8588 -26.8588 -26.7344 -26.7344 -10.5712 -10.5712
   -10.5132 -10.5132 -10.4715 -10.4715 -10.3971 -10.3971 -10.3529 -10.3529
   -10.3402 -10.3402 -10.2160 -10.2160 -10.1814 -10.1814 -10.1493 -10.1493
    -2.8889  -2.8889  -0.0055  -0.0055   0.3760   0.3760   0.4749   0.4749
     2.1506   2.1506   2.4170   2.4170   6.5901   6.5901   7.2388   7.2388
     7.6254   7.6255   8.1364

          k = 0.1667-0.4969 0.2332 ( 22554 PWs)   bands (ev):

   -26.8649 -26.8649 -26.8598 -26.8598 -26.7344 -26.7344 -10.5575 -10.5575
   -10.5141 -10.5141 -10.4745 -10.4745 -10.3982 -10.3982 -10.3626 -10.3626
   -10.3491 -10.3491 -10.2066 -10.2066 -10.1809 -10.1809 -10.1502 -10.1502
    -2.8724  -2.8724  -0.0763  -0.0763   0.3836   0.3836   0.4527   0.4527
     2.2411   2.2411   2.4393   2.4393   6.5975   6.5975   7.4300   7.4300
     7.5848   7.5849   8.0737

          k = 0.1667-0.4969 0.3506 ( 22554 PWs)   bands (ev):

   -26.8642 -26.8642 -26.8605 -26.8605 -26.7344 -26.7344 -10.5510 -10.5510
   -10.5059 -10.5059 -10.4831 -10.4831 -10.4042 -10.4042 -10.3652 -10.3652
   -10.3513 -10.3513 -10.2037 -10.2037 -10.1750 -10.1750 -10.1544 -10.1544
    -2.8635  -2.8635  -0.1149  -0.1149   0.3855   0.3855   0.4483   0.4483
     2.2855   2.2855   2.4491   2.4491   6.6475   6.6475   7.3690   7.3691
     7.6666   7.6677   7.8503

          k = 0.1667-0.4969-0.2365 ( 22558 PWs)   bands (ev):

   -26.8649 -26.8649 -26.8598 -26.8598 -26.7344 -26.7344 -10.5577 -10.5577
   -10.5091 -10.5091 -10.4766 -10.4766 -10.4052 -10.4052 -10.3593 -10.3593
   -10.3496 -10.3496 -10.2064 -10.2064 -10.1717 -10.1717 -10.1578 -10.1578
    -2.8715  -2.8715  -0.0824  -0.0824   0.3696   0.3696   0.4713   0.4713
     2.2644   2.2644   2.4158   2.4158   6.6794   6.6794   7.2011   7.2012
     7.6309   7.6309   8.0040

          k = 0.1667-0.4969-0.1191 ( 22556 PWs)   bands (ev):

   -26.8659 -26.8659 -26.8587 -26.8587 -26.7344 -26.7344 -10.5709 -10.5709
   -10.5107 -10.5107 -10.4716 -10.4716 -10.4031 -10.4031 -10.3506 -10.3506
   -10.3415 -10.3415 -10.2146 -10.2146 -10.1747 -10.1747 -10.1553 -10.1553
    -2.8881  -2.8881  -0.0157  -0.0157   0.3941   0.3941   0.4643   0.4643
     2.1722   2.1722   2.3968   2.3968   6.6628   6.6628   7.0595   7.0595
     7.7299   7.7301   8.1396

          k = 0.1667-0.4969-0.0016 ( 22556 PWs)   bands (ev):

   -26.8663 -26.8663 -26.8583 -26.8583 -26.7344 -26.7344 -10.5773 -10.5773
   -10.5102 -10.5102 -10.4719 -10.4719 -10.4005 -10.4005 -10.3491 -10.3491
   -10.3324 -10.3324 -10.2214 -10.2214 -10.1784 -10.1784 -10.1515 -10.1515
    -2.8966  -2.8966   0.0208   0.0208   0.4126   0.4126   0.4554   0.4554
     2.1078   2.1078   2.4026   2.4026   6.6220   6.6220   7.0799   7.0799
     7.6809   7.6811   8.1606

          k = 0.3333 0.0000 0.2316 ( 22577 PWs)   bands (ev):

[...]
   -10.5352 -10.5044 -10.4794 -10.4405 -10.4242 -10.3926 -10.3494 -10.3429
   -10.3249 -10.3172 -10.2161 -10.1877 -10.1811 -10.1739 -10.1465 -10.1364
    -2.8889  -2.8199   0.0224   0.1111   0.2480   0.4204   0.4477   0.4720
     2.0473   2.0727   2.4125   2.4418   6.6432   6.7090   7.0189   7.4123
     7.5324   7.8471   8.0055

          k = 0.3333 0.3313 0.3490 ( 22528 PWs)   bands (ev):

   -26.8608 -26.8605 -26.8558 -26.8556 -26.7251 -26.7248 -10.5685 -10.5659
   -10.5144 -10.5088 -10.4744 -10.4646 -10.4155 -10.4129 -10.3493 -10.3461
   -10.3230 -10.3206 -10.1944 -10.1907 -10.1810 -10.1723 -10.1514 -10.1402
    -2.8527  -2.8413   0.0333   0.0438   0.3239   0.3411   0.4371   0.4458
     2.0862   2.1316   2.4165   2.4574   6.8485   6.9040   7.0102   7.1226
     7.5934   7.7516   7.8409

          k = 0.3333 0.3313 0.4664 ( 22548 PWs)   bands (ev):

   -26.8629 -26.8585 -26.8568 -26.8546 -26.7260 -26.7240 -10.5801 -10.5614
   -10.5313 -10.5025 -10.4776 -10.4431 -10.4285 -10.3983 -10.3475 -10.3402
   -10.3246 -10.3201 -10.2137 -10.1913 -10.1737 -10.1717 -10.1500 -10.1380
    -2.8786  -2.8291   0.0136   0.1201   0.2307   0.4265   0.4560   0.4688
     2.0445   2.1211   2.3642   2.4469   6.6133   6.7111   7.1053   7.3794
     7.5753   7.8498   7.9020

          k = 0.3333 0.3313-0.1207 ( 22536 PWs)   bands (ev):

   -26.8644 -26.8581 -26.8564 -26.8537 -26.7266 -26.7234 -10.5952 -10.5657
   -10.5368 -10.5134 -10.4579 -10.4440 -10.4341 -10.3624 -10.3425 -10.3354
   -10.3211 -10.3194 -10.2420 -10.2046 -10.1720 -10.1679 -10.1459 -10.1323
    -2.9155  -2.8201   0.0072   0.1672   0.2665   0.4523   0.4994   0.5213
     1.9488   2.0374   2.3190   2.4299   6.3852   6.5330   7.0950   7.3980
     7.6968   8.0322   8.1190

          k = 0.3333 0.3313-0.0033 ( 22541 PWs)   bands (ev):

   -26.8649 -26.8584 -26.8560 -26.8534 -26.7268 -26.7232 -10.6018 -10.5707
   -10.5367 -10.5142 -10.4553 -10.4513 -10.4277 -10.3407 -10.3375 -10.3330
   -10.3225 -10.3136 -10.2609 -10.2141 -10.1730 -10.1678 -10.1403 -10.1308
    -2.9329  -2.8171   0.0083   0.1485   0.3721   0.4149   0.5371   0.5446
     1.8802   1.9822   2.3088   2.4331   6.3050   6.4707   7.0600   7.3668
     7.7680   8.0027   8.1912

          k = 0.3333 0.3313 0.1141 ( 22535 PWs)   bands (ev):

   -26.8643 -26.8580 -26.8567 -26.8537 -26.7265 -26.7235 -10.5945 -10.5670
   -10.5379 -10.5161 -10.4618 -10.4432 -10.4258 -10.3590 -10.3436 -10.3370
   -10.3223 -10.3151 -10.2451 -10.2046 -10.1760 -10.1707 -10.1391 -10.1337
    -2.9217  -2.8151   0.0172   0.1772   0.2402   0.4803   0.4944   0.5132
     1.9266   2.0176   2.3430   2.4424   6.3966   6.5390   7.0356   7.3987
     7.7480   7.9724   8.1272

          k = 0.3333-0.4969 0.2316 ( 22532 PWs)   bands (ev):

   -26.8594 -26.8594 -26.8562 -26.8562 -26.7257 -26.7257 -10.5808 -10.5808
   -10.5254 -10.5254 -10.4599 -10.4599 -10.4101 -10.4101 -10.3329 -10.3329
   -10.3215 -10.3215 -10.2052 -10.2052 -10.1741 -10.1741 -10.1391 -10.1391
    -2.8325  -2.8325   0.0753   0.0753   0.3364   0.3364   0.4563   0.4563
     2.0021   2.0021   2.4244   2.4244   6.5652   6.5652   7.3259   7.3259
     7.8621   7.8621   8.1707

          k = 0.3333-0.4969 0.3490 ( 22540 PWs)   bands (ev):

   -26.8587 -26.8587 -26.8569 -26.8569 -26.7257 -26.7257 -10.5791 -10.5791
   -10.4986 -10.4986 -10.4829 -10.4829 -10.4227 -10.4227 -10.3312 -10.3312
   -10.3233 -10.3233 -10.1885 -10.1885 -10.1773 -10.1773 -10.1458 -10.1458
    -2.8252  -2.8252   0.0781   0.0781   0.3039   0.3039   0.4354   0.4354
     2.0448   2.0448   2.4426   2.4426   6.8000   6.8000   7.1206   7.1207
     7.7712   7.7713   8.0447

          k = 0.3333-0.4969 0.4664 ( 22530 PWs)   bands (ev):

   -26.8595 -26.8595 -26.8561 -26.8561 -26.7257 -26.7257 -10.5811 -10.5811
   -10.5223 -10.5223 -10.4574 -10.4574 -10.4186 -10.4186 -10.3310 -10.3310
   -10.3222 -10.3222 -10.2041 -10.2041 -10.1681 -10.1681 -10.1442 -10.1442
    -2.8316  -2.8316   0.0712   0.0712   0.3097   0.3097   0.4865   0.4865
     2.0097   2.0097   2.4162   2.4162   6.5679   6.5679   7.4085   7.4085
     7.7126   7.7127   8.0856

          k = 0.3333-0.4969-0.1207 ( 22530 PWs)   bands (ev):

   -26.8604 -26.8604 -26.8552 -26.8552 -26.7257 -26.7257 -10.5889 -10.5889
   -10.5346 -10.5346 -10.4556 -10.4556 -10.3878 -10.3878 -10.3292 -10.3292
   -10.3203 -10.3203 -10.2301 -10.2301 -10.1651 -10.1651 -10.1368 -10.1368
    -2.8451  -2.8451   0.0451   0.0451   0.4065   0.4065   0.5228   0.5228
     1.9186   1.9186   2.3794   2.3794   6.3315   6.3315   7.5248   7.5248
     7.9214   7.9214   8.1748

          k = 0.3333-0.4969-0.0033 ( 22560 PWs)   bands (ev):

   -26.8607 -26.8607 -26.8549 -26.8549 -26.7258 -26.7258 -10.5942 -10.5942
   -10.5359 -10.5359 -10.4598 -10.4598 -10.3680 -10.3680 -10.3266 -10.3266
   -10.3183 -10.3183 -10.2476 -10.2476 -10.1655 -10.1655 -10.1323 -10.1323
    -2.8522  -2.8522   0.0351   0.0351   0.4932   0.4932   0.5058   0.5058
     1.8593   1.8593   2.3695   2.3695   6.2473   6.2473   7.5351   7.5351
     7.9446   7.9446   8.3334

          k = 0.3333-0.4969 0.1141 ( 22552 PWs)   bands (ev):

   -26.8604 -26.8604 -26.8552 -26.8552 -26.7257 -26.7257 -10.5888 -10.5888
   -10.5366 -10.5366 -10.4572 -10.4572 -10.3798 -10.3798 -10.3324 -10.3324
   -10.3190 -10.3190 -10.2327 -10.2327 -10.1687 -10.1687 -10.1332 -10.1332
    -2.8460  -2.8460   0.0536   0.0536   0.4099   0.4099   0.5132   0.5132
     1.9080   1.9080   2.3888   2.3888   6.3333   6.3333   7.5000   7.5000
     7.9068   7.9068   8.3700

          k =-0.5000 0.0000-0.3473 ( 22574 PWs)   bands (ev):

   -26.8617 -26.8595 -26.8581 -26.8564 -26.7238 -26.7232 -10.5537 -10.5359
   -10.4994 -10.4928 -10.4625 -10.4402 -10.3948 -10.3940 -10.3848 -10.3750
   -10.3696 -10.3616 -10.1979 -10.1898 -10.1849 -10.1788 -10.1433 -10.1288
    -2.8725  -2.8488  -0.1943  -0.1727   0.4048   0.4358   0.4519   0.4686
     2.3359   2.3633   2.4280   2.5195   6.5094   6.5571   7.2021   7.2579
     7.7559   7.9490   8.0441

          k =-0.5000 0.0000-0.2299 ( 22540 PWs)   bands (ev):

   -26.8623 -26.8611 -26.8565 -26.8557 -26.7237 -26.7233 -10.5522 -10.5349
   -10.5046 -10.4960 -10.4698 -10.4539 -10.3958 -10.3880 -10.3807 -10.3637
   -10.3602 -10.3592 -10.1984 -10.1908 -10.1849 -10.1781 -10.1448 -10.1312
    -2.8803  -2.8598  -0.1537  -0.1250   0.3950   0.4354   0.4515   0.4651
     2.2907   2.3677   2.3875   2.4968   6.5374   6.5563   7.3324   7.3373
     7.7362   7.7536   7.8108

          k =-0.5000 0.0000-0.1125 ( 22561 PWs)   bands (ev):

   -26.8633 -26.8627 -26.8550 -26.8547 -26.7237 -26.7234 -10.5468 -10.5316
   -10.5193 -10.5094 -10.4730 -10.4664 -10.3979 -10.3912 -10.3736 -10.3628
   -10.3379 -10.3373 -10.1988 -10.1936 -10.1842 -10.1782 -10.1465 -10.1372
    -2.8942  -2.8825  -0.0618  -0.0267   0.3784   0.4382   0.4434   0.4511
     2.1992   2.2733   2.3935   2.4635   6.6470   6.6512   7.1710   7.3395
     7.5227   7.6015   7.8162

          k =-0.5000 0.0000-0.6996 ( 22530 PWs)   bands (ev):

   -26.8635 -26.8635 -26.8543 -26.8543 -26.7236 -26.7236 -10.5360 -10.5360
   -10.5232 -10.5232 -10.4707 -10.4707 -10.3970 -10.3970 -10.3661 -10.3661
   -10.3275 -10.3275 -10.1971 -10.1971 -10.1814 -10.1814 -10.1436 -10.1436
    -2.8973  -2.8973   0.0070   0.0070   0.4005   0.4005   0.4441   0.4441
     2.1813   2.1813   2.4286   2.4286   6.8393   6.8393   6.9501   6.9501
     7.5339   7.5339   7.9557

          k =-0.5000 0.1656-0.3473 ( 22548 PWs)   bands (ev):

   -26.8608 -26.8589 -26.8580 -26.8565 -26.7245 -26.7240 -10.5573 -10.5470
   -10.5139 -10.5097 -10.4672 -10.4510 -10.3996 -10.3971 -10.3674 -10.3601
   -10.3529 -10.3454 -10.1960 -10.1891 -10.1839 -10.1760 -10.1465 -10.1316
    -2.8594  -2.8380  -0.1146  -0.1053   0.3801   0.4152   0.4364   0.4549
     2.2357   2.3489   2.3616   2.4761   6.6299   6.6647   7.1034   7.4741
     7.7160   7.7184   7.8802

          k =-0.5000 0.1656-0.2299 ( 22555 PWs)   bands (ev):

   -26.8615 -26.8604 -26.8566 -26.8557 -26.7245 -26.7241 -10.5634 -10.5474
   -10.5172 -10.5045 -10.4841 -10.4434 -10.3988 -10.3919 -10.3667 -10.3518
   -10.3478 -10.3441 -10.2060 -10.1883 -10.1810 -10.1753 -10.1479 -10.1313
    -2.8664  -2.8479  -0.0869  -0.0622   0.3644   0.3972   0.4596   0.4762
     2.2216   2.2522   2.3943   2.4459   6.6038   6.6350   7.1497   7.4459
     7.5983   7.6546   7.9331

          k =-0.5000 0.1656-0.1125 ( 22534 PWs)   bands (ev):

   -26.8624 -26.8619 -26.8551 -26.8546 -26.7244 -26.7242 -10.5708 -10.5566
   -10.5146 -10.5110 -10.4788 -10.4544 -10.3992 -10.3927 -10.3522 -10.3444
   -10.3368 -10.3321 -10.2167 -10.2000 -10.1764 -10.1744 -10.1454 -10.1333
    -2.8790  -2.8684  -0.0234   0.0090   0.3717   0.4070   0.4644   0.4907
     2.1317   2.1582   2.3857   2.4151   6.5938   6.6218   7.0628   7.1900
     7.7377   7.7862   8.0298

          k =-0.5000 0.1656-0.6996 ( 22554 PWs)   bands (ev):

   -26.8626 -26.8626 -26.8544 -26.8544 -26.7243 -26.7243 -10.5687 -10.5687
   -10.5115 -10.5115 -10.4684 -10.4684 -10.3975 -10.3975 -10.3456 -10.3456
   -10.3247 -10.3247 -10.2149 -10.2149 -10.1745 -10.1745 -10.1388 -10.1388
    -2.8819  -2.8819   0.0221   0.0221   0.4253   0.4253   0.4574   0.4574
     2.0931   2.0931   2.3945   2.3945   6.6211   6.6211   7.0305   7.0305
     7.7834   7.7836   8.1212

          k =-0.5000 0.3313-0.3473 ( 22522 PWs)   bands (ev):

   -26.8589 -26.8578 -26.8575 -26.8567 -26.7260 -26.7257 -10.5815 -10.5787
   -10.5136 -10.5054 -10.4724 -10.4638 -10.4260 -10.4245 -10.3317 -10.3297
   -10.3260 -10.3219 -10.1914 -10.1873 -10.1831 -10.1746 -10.1496 -10.1379
    -2.8308  -2.8174   0.0668   0.0902   0.3032   0.3233   0.4136   0.4441
     2.0065   2.0930   2.4016   2.4675   6.7856   6.8456   6.9689   7.1769
     7.7700   7.9421   8.0117

          k =-0.5000 0.3313-0.2299 ( 22518 PWs)   bands (ev):

   -26.8599 -26.8588 -26.8567 -26.8556 -26.7260 -26.7257 -10.5831 -10.5802
   -10.5362 -10.5098 -10.4772 -10.4387 -10.4177 -10.4113 -10.3375 -10.3267
   -10.3237 -10.3207 -10.2138 -10.1977 -10.1730 -10.1707 -10.1468 -10.1337
    -2.8367  -2.8252   0.0547   0.0960   0.2980   0.3552   0.4576   0.4806
     1.9788   2.0372   2.3924   2.4381   6.5549   6.5702   7.2460   7.4409
     7.7078   8.0301   8.0615

          k =-0.5000 0.3313-0.1125 ( 22515 PWs)   bands (ev):

   -26.8607 -26.8601 -26.8554 -26.8548 -26.7259 -26.7258 -10.5906 -10.5870
   -10.5417 -10.5304 -10.4641 -10.4500 -10.3952 -10.3693 -10.3401 -10.3229
   -10.3198 -10.3187 -10.2404 -10.2258 -10.1672 -10.1668 -10.1381 -10.1296
    -2.8478  -2.8411   0.0365   0.0637   0.3923   0.4287   0.5162   0.5211
     1.9059   1.9197   2.3744   2.3889   6.3274   6.3317   7.4255   7.5414
     7.9004   8.1238   8.1791

          k =-0.5000 0.3313-0.6996 ( 22520 PWs)   bands (ev):

   -26.8608 -26.8608 -26.8547 -26.8547 -26.7259 -26.7259 -10.5938 -10.5938
   -10.5369 -10.5369 -10.4600 -10.4600 -10.3711 -10.3711 -10.3234 -10.3234
   -10.3169 -10.3169 -10.2499 -10.2499 -10.1655 -10.1655 -10.1311 -10.1311
    -2.8511  -2.8511   0.0352   0.0352   0.4921   0.4921   0.5105   0.5105
     1.8586   1.8586   2.3673   2.3673   6.2454   6.2454   7.4985   7.4985
     8.0461   8.0462   8.3060

          k =-0.5000-0.4969-0.3473 ( 22544 PWs)   bands (ev):

   -26.8578 -26.8578 -26.8569 -26.8569 -26.7267 -26.7267 -10.5948 -10.5948
   -10.4923 -10.4923 -10.4815 -10.4815 -10.4399 -10.4399 -10.3156 -10.3156
   -10.3145 -10.3145 -10.1866 -10.1866 -10.1820 -10.1820 -10.1443 -10.1443
    -2.8115  -2.8115   0.2453   0.2453   0.2692   0.2692   0.3583   0.3583
     1.9238   1.9238   2.4443   2.4443   6.8146   6.8146   6.9868   6.9868
     8.0568   8.0568   8.2898

          k =-0.5000-0.4969-0.2299 ( 22512 PWs)   bands (ev):

   -26.8586 -26.8586 -26.8561 -26.8561 -26.7267 -26.7267 -10.5950 -10.5950
   -10.5262 -10.5262 -10.4549 -10.4549 -10.4240 -10.4240 -10.3166 -10.3166
   -10.3138 -10.3138 -10.2123 -10.2123 -10.1691 -10.1691 -10.1393 -10.1393
    -2.8177  -2.8177   0.1432   0.1432   0.3672   0.3672   0.4193   0.4193
     1.8810   1.8810   2.4205   2.4205   6.4744   6.4744   7.3995   7.3995
     8.0129   8.0129   8.3844

          k =-0.5000-0.4969-0.1125 ( 22524 PWs)   bands (ev):

   -26.8594 -26.8594 -26.8552 -26.8552 -26.7267 -26.7267 -10.5992 -10.5992
   -10.5436 -10.5436 -10.4616 -10.4616 -10.3715 -10.3715 -10.3184 -10.3184
   -10.3130 -10.3130 -10.2493 -10.2493 -10.1630 -10.1630 -10.1311 -10.1311
    -2.8297  -2.8297   0.0621   0.0621   0.4804   0.4804   0.5118   0.5118
     1.7797   1.7797   2.3787   2.3787   6.2007   6.2007   7.7455   7.7455
     8.0542   8.0543   8.4148

          k =-0.5000-0.4969-0.6996 ( 22540 PWs)   bands (ev):

   -26.8597 -26.8597 -26.8549 -26.8549 -26.7267 -26.7267 -10.6031 -10.6031
   -10.5456 -10.5456 -10.4668 -10.4668 -10.3300 -10.3300 -10.3268 -10.3268
   -10.3128 -10.3128 -10.2765 -10.2765 -10.1612 -10.1612 -10.1277 -10.1277
    -2.8357  -2.8357   0.0330   0.0330   0.5413   0.5413   0.5497   0.5497
     1.7195   1.7195   2.3602   2.3602   6.1040   6.1040   7.8056   7.8057
     8.0959   8.0959   8.4629

     the Fermi energy is     4.5555 ev

!    total energy              =    -771.38277563 Ry
     estimated scf accuracy    <          5.5E-11 Ry
     smearing contrib. (-TS)   =       0.00000000 Ry
     internal energy E=F+TS    =    -771.38277563 Ry

     The total energy is F=E-TS. E is the sum of the following terms:
     one-electron contribution =    -133.94763086 Ry
     hartree contribution      =      88.42075682 Ry
     xc contribution           =     -81.53284174 Ry
     ewald contribution        =    -242.48517348 Ry
     one-center paw contrib.   =    -401.83788636 Ry

     convergence has been achieved in   6 iterations

     Forces acting on atoms (cartesian axes, Ry/au):

     atom    1 type  3   force =     0.00007462   -0.00041374   -0.00004488
     atom    2 type  3   force =    -0.00007462    0.00041374    0.00004488
     atom    3 type  3   force =    -0.00007462   -0.00041374    0.00004488
     atom    4 type  3   force =     0.00007462    0.00041374   -0.00004488
     atom    5 type  3   force =     0.00000000    0.00000000    0.00000000
     atom    6 type  3   force =     0.00000000    0.00000000    0.00000000
     atom    7 type  1   force =     0.00000000    0.00000000    0.00000000
     atom    8 type  1   force =     0.00000000    0.00000000    0.00000000
     atom    9 type  2   force =     0.00064587    0.00080182   -0.00012467
     atom   10 type  2   force =    -0.00064587   -0.00080182    0.00012467
     atom   11 type  2   force =    -0.00064587    0.00080182    0.00012467
     atom   12 type  2   force =     0.00064587   -0.00080182   -0.00012467
     atom   13 type  2   force =     0.00069689    0.00070809   -0.00023890
     atom   14 type  2   force =    -0.00069689   -0.00070809    0.00023890
     atom   15 type  2   force =    -0.00069689    0.00070809    0.00023890
     atom   16 type  2   force =     0.00069689   -0.00070809   -0.00023890
     atom   17 type  2   force =     0.00039746   -0.00001833    0.00099952
     atom   18 type  2   force =    -0.00039746    0.00001833   -0.00099952
     atom   19 type  2   force =    -0.00039746   -0.00001833   -0.00099952
     atom   20 type  2   force =     0.00039746    0.00001833    0.00099952

     Total force =     0.003718     Total SCF correction =     0.000023


     Computing stress (Cartesian axis) and pressure

          total   stress  (Ry/bohr**3)                   (kbar)     P=        6.82
   0.00004592   0.00000000  -0.00000000            6.76        0.00       -0.00
   0.00000000   0.00004554   0.00000000            0.00        6.70        0.00
  -0.00000000   0.00000000   0.00004753           -0.00        0.00        6.99

     Energy error            =      9.9E-05 Ry
     Gradient error          =      1.0E-03 Ry/Bohr

     bfgs converged in   4 scf cycles and   3 bfgs steps
     (criteria: energy <  1.0E-04 Ry, force <  1.0E-03 Ry/Bohr)

     End of BFGS Geometry Optimization

     Final energy             =    -771.3827756253 Ry

     File ./k3alh6.bfgs deleted, as requested
Begin final coordinates

ATOMIC_POSITIONS (crystal)
K             0.7429433753        0.5281183457        0.2490437660
K             0.2570566247        0.4718816543        0.7509562340
K             0.2570566247        0.0281183457        0.2509562340
K             0.7429433753        0.9718816543        0.7490437660
K            -0.0000000000        0.0000000000        0.5000000000
K             0.0000000000        0.5000000000        0.0000000000
Al            0.5000000000        0.0000000000        0.0000000000
Al            0.5000000000        0.5000000000        0.5000000000
H             0.6317091292        0.7390654155        0.4641293597
H             0.3682908708        0.2609345845        0.5358706403
H             0.3682908708        0.2390654155        0.0358706403
H             0.6317091292        0.7609345845        0.9641293597
H             0.7080581533        0.1718112348        0.9707961772
H             0.2919418467        0.8281887652        0.0292038228
H             0.2919418467        0.6718112348        0.5292038228
H             0.7080581533        0.3281887652        0.4707961772
H             0.7630006381        0.5194887107        0.7037187813
H             0.2369993619        0.4805112893        0.2962812187
H             0.2369993619        0.0194887107        0.7962812187
H             0.7630006381        0.9805112893        0.2037187813
End final coordinates



     Writing all to output data dir ./k3alh6.save/
 
     init_run     :      1.19s CPU      1.34s WALL (       1 calls)
     electrons    :     46.67s CPU     47.56s WALL (       4 calls)
     update_pot   :      0.80s CPU      0.81s WALL (       3 calls)
     forces       :      1.75s CPU      1.79s WALL (       4 calls)
     stress       :      4.48s CPU      4.50s WALL (       4 calls)

     Called by init_run:
     wfcinit      :      0.74s CPU      0.80s WALL (       1 calls)
     potinit      :      0.22s CPU      0.24s WALL (       1 calls)
     hinit0       :      0.15s CPU      0.18s WALL (       1 calls)

     Called by electrons:
     c_bands      :     39.75s CPU     40.40s WALL (      25 calls)
     sum_band     :      5.46s CPU      5.55s WALL (      25 calls)
     v_of_rho     :      0.19s CPU      0.20s WALL (      26 calls)
     newd         :      0.30s CPU      0.32s WALL (      26 calls)
     PAW_pot      :      1.19s CPU      1.22s WALL (      29 calls)
     mix_rho      :      0.04s CPU      0.04s WALL (      25 calls)

     Called by c_bands:
     init_us_2    :      0.72s CPU      0.76s WALL (    1674 calls)
     init_us_2:cp :      0.71s CPU      0.76s WALL (    1674 calls)
     cegterg      :     33.90s CPU     34.33s WALL (     675 calls)

     Called by *egterg:
     cdiaghg      :      5.49s CPU      5.56s WALL (    2807 calls)
     h_psi        :     23.97s CPU     24.33s WALL (    2996 calls)
     s_psi        :      1.17s CPU      1.19s WALL (    2996 calls)
     g_psi        :      0.09s CPU      0.09s WALL (    2294 calls)

     Called by h_psi:
     h_psi:calbec :      1.87s CPU      1.92s WALL (    2996 calls)
     vloc_psi     :     20.57s CPU     20.87s WALL (    2996 calls)
     add_vuspsi   :      1.35s CPU      1.37s WALL (    2996 calls)

     General routines
     calbec       :      2.94s CPU      3.00s WALL (    4292 calls)
     fft          :      0.18s CPU      0.20s WALL (     436 calls)
     ffts         :      0.02s CPU      0.02s WALL (      51 calls)
     fftw         :     22.34s CPU     22.67s WALL (  180431 calls)
     interpolate  :      0.02s CPU      0.02s WALL (      26 calls)
 
     Parallel routines
 
     PWSCF        :     55.81s CPU     57.45s WALL

 
   This run was terminated on:  17:20:47  27Nov2023            

=------------------------------------------------------------------------------=
   JOB DONE.
=------------------------------------------------------------------------------=
Job execution finished at: Mon Nov 27 17:20:48 IST 2023
