==========================================
SLURM_CLUSTER_NAME = paramganga
SLURM_ARRAY_JOB_ID = 
SLURM_ARRAY_TASK_ID = 
SLURM_ARRAY_TASK_COUNT = 
SLURM_ARRAY_TASK_MAX = 
SLURM_ARRAY_TASK_MIN = 
SLURM_JOB_ACCOUNT = iitr
SLURM_JOB_ID = 173803
SLURM_JOB_NAME = 19280
SLURM_JOB_NODELIST = cn[147-149]
SLURM_JOB_USER = garima.iitr
SLURM_JOB_UID = 38339
SLURM_JOB_PARTITION = small
SLURM_TASK_PID = 27345
SLURM_SUBMIT_DIR = /home/garima.iitr/.cache/.es/compmat/kalh4
SLURM_CPUS_ON_NODE = 48
SLURM_NTASKS = 144
SLURM_TASK_PID = 27345
==========================================
cn147
 
:: initializing oneAPI environment ...
   slurm_script: BASH_VERSION = 4.2.46(2)-release
   args: Using "$@" for setvars.sh arguments: 
:: advisor -- latest
:: ccl -- latest
:: clck -- latest
:: compiler -- latest
:: dal -- latest
:: debugger -- latest
:: dev-utilities -- latest
:: dnnl -- latest
:: dpcpp-ct -- latest
:: dpl -- latest
:: inspector -- latest
:: intelpython -- latest
:: ipp -- latest
:: ippcp -- latest
:: ipp -- latest
:: itac -- latest
:: mkl -- latest
:: mpi -- latest
:: tbb -- latest
:: vpl -- latest
:: vtune -- latest
:: oneAPI environment initialized ::
 
Job execution start: Mon Nov 27 17:18:46 IST 2023
Job submitted by garima.iitr
The job ID is:173803

     Program PWSCF v.7.1 starts on 27Nov2023 at 17:18:49 

     This program is part of the open-source Quantum ESPRESSO suite
     for quantum simulation of materials; please cite
         "P. Giannozzi et al., J. Phys.:Condens. Matter 21 395502 (2009);
         "P. Giannozzi et al., J. Phys.:Condens. Matter 29 465901 (2017);
         "P. Giannozzi et al., J. Chem. Phys. 152 154105 (2020);
          URL http://www.quantum-espresso.org", 
     in publications or presentations arising from this work. More details at
     http://www.quantum-espresso.org/quote

     Parallel version (MPI & OpenMP), running on     144 processor cores
     Number of MPI processes:               144
     Threads/MPI process:                     1

     MPI processes distributed on     3 nodes
     169579 MiB available memory on the printing compute node when the environment starts
 
     Reading input from kalh4.in

     Current dimensions of program PWSCF are:
     Max number of different atomic species (ntypx) = 10
     Max number of k-points (npk) =  40000
     Max angular momentum in pseudopotentials (lmaxx) =  4
     file Al.pbe-n-kjpaw_psl.1.0.0.UPF: wavefunction(s)  3S 3P renormalized
     file K.pbe-spn-kjpaw_psl.1.0.0.UPF: wavefunction(s)  3S renormalized

     IMPORTANT: XC functional enforced from input :
     Exchange-correlation= PBE
                           (   1   4   3   4   0   0   0)
     Any further DFT definition will be discarded
     Please, verify this is what you really want

     Message from routine setup:
     using ibrav=0 with symmetry is DISCOURAGED, use correct ibrav instead
 
     K-points division:     npool     =       4
     R & G space division:  proc/nbgrp/npool/nimage =      36
     Subspace diagonalization in iterative solution of the eigenvalue problem:
     a serial algorithm will be used

 
     Parallelization info
     --------------------
     sticks:   dense  smooth     PW     G-vecs:    dense   smooth      PW
     Min         147     118     32                 8378     6000     854
     Max         150     119     33                 8380     6003     857
     Sum        5341    4277   1173               301629   216059   30815
 
     Using Slab Decomposition
 


     bravais-lattice index     =            0
     lattice parameter (alat)  =      16.5693  a.u.
     unit-cell volume          =    2461.0457 (a.u.)^3
     number of atoms/cell      =           24
     number of atomic types    =            3
     number of electrons       =        64.00
     number of Kohn-Sham states=           38
     kinetic-energy cutoff     =      75.0000  Ry
     charge density cutoff     =     375.0000  Ry
     scf convergence threshold =      1.0E-08
     mixing beta               =       0.7000
     number of iterations used =            8  plain     mixing
     energy convergence thresh.=      1.0E-04
     force convergence thresh. =      1.0E-03
     Exchange-correlation= PBE
                           (   1   4   3   4   0   0   0)
     nstep                     =           50


     celldm(1)=  16.569251  celldm(2)=   0.000000  celldm(3)=   0.000000
     celldm(4)=   0.000000  celldm(5)=   0.000000  celldm(6)=   0.000000

     crystal axes: (cart. coord. in units of alat)
               a(1) = (   1.000000   0.000000   0.000000 )  
               a(2) = (   0.000000   0.652381   0.000000 )  
               a(3) = (   0.000000   0.000000   0.829296 )  

     reciprocal axes: (cart. coord. in units 2 pi/alat)
               b(1) = (  1.000000  0.000000  0.000000 )  
               b(2) = (  0.000000  1.532846  0.000000 )  
               b(3) = (  0.000000  0.000000  1.205842 )  


     PseudoPot. # 1 for Al read from file:
     /home/garima.iitr/.cache/.es/compmat/kalh4/Al.pbe-n-kjpaw_psl.1.0.0.UPF
     MD5 check sum: 502b6b27b9c6270cab5dd1084b96fa6d
     Pseudo is Projector augmented-wave + core cor, Zval =  3.0
     Generated using &quot;atomic&quot; code by A. Dal Corso  v.6.3
     Shape of augmentation charge: PSQ
     Using radial grid of 1135 points,  6 beta functions with: 
                l(1) =   0
                l(2) =   0
                l(3) =   1
                l(4) =   1
                l(5) =   2
                l(6) =   2
     Q(r) pseudized with 0 coefficients 


     PseudoPot. # 2 for H  read from file:
     /home/garima.iitr/.cache/.es/compmat/kalh4/H.pbe-rrkjus_psl.1.0.0.UPF
     MD5 check sum: 3f4114867bd07edc7f1424d066fc1888
     Pseudo is Ultrasoft, Zval =  1.0
     Generated using &quot;atomic&quot; code by A. Dal Corso  v.6.3MaX
     Using radial grid of  929 points,  2 beta functions with: 
                l(1) =   0
                l(2) =   0
     Q(r) pseudized with 0 coefficients 


     PseudoPot. # 3 for K  read from file:
     /home/garima.iitr/.cache/.es/compmat/kalh4/K.pbe-spn-kjpaw_psl.1.0.0.UPF
     MD5 check sum: 34cc42130a09071ebe376fd42eb21491
     Pseudo is Projector augmented-wave + core cor, Zval =  9.0
     Generated using &quot;atomic&quot; code by A. Dal Corso  v.6.2.2
     Shape of augmentation charge: PSQ
     Using radial grid of 1165 points,  6 beta functions with: 
                l(1) =   0
                l(2) =   0
                l(3) =   1
                l(4) =   1
                l(5) =   2
                l(6) =   2
     Q(r) pseudized with 0 coefficients 


     atomic species   valence    mass     pseudopotential
        Al             3.00    26.98100     Al( 1.00)
        H              1.00     1.00750     H ( 1.00)
        K              9.00    39.09830     K ( 1.00)

      8 Sym. Ops., with inversion, found ( 6 have fractional translation)



   Cartesian axes

     site n.     atom                  positions (alat units)
         1           K   tau(   1) = (   0.1764569   0.1630954   0.1371422  )
         2           K   tau(   2) = (   0.3235431   0.4892861   0.5517901  )
         3           K   tau(   3) = (   0.8235431   0.4892861   0.6921536  )
         4           K   tau(   4) = (   0.6764569   0.1630954   0.2775057  )
         5           Al  tau(   5) = (   0.0687938   0.1630954   0.5634634  )
         6           Al  tau(   6) = (   0.4312062   0.4892861   0.1488155  )
         7           Al  tau(   7) = (   0.9312062   0.4892861   0.2658324  )
         8           Al  tau(   8) = (   0.5687938   0.1630954   0.6804803  )
         9           H   tau(   9) = (   0.0778535   0.0134636   0.6723922  )
        10           H   tau(  10) = (   0.4221465   0.3396543   0.2577444  )
        11           H   tau(  11) = (   0.4221465   0.6389178   0.2577444  )
        12           H   tau(  12) = (   0.9221465   0.3396543   0.1569035  )
        13           H   tau(  13) = (   0.9221465   0.6389178   0.1569035  )
        14           H   tau(  14) = (   0.5778535   0.3127271   0.5715514  )
        15           H   tau(  15) = (   0.5778535   0.0134636   0.5715514  )
        16           H   tau(  16) = (   0.0778535   0.3127271   0.6723922  )
        17           H   tau(  17) = (   0.0900178   0.4892861   0.3598955  )
        18           H   tau(  18) = (   0.4099822   0.1630954   0.7745434  )
        19           H   tau(  19) = (   0.9099822   0.1630954   0.4694003  )
        20           H   tau(  20) = (   0.5900178   0.4892861   0.0547524  )
        21           H   tau(  21) = (   0.2159413   0.1630954   0.4514109  )
        22           H   tau(  22) = (   0.2840587   0.4892861   0.0367630  )
        23           H   tau(  23) = (   0.7840587   0.4892861   0.3778849  )
        24           H   tau(  24) = (   0.7159413   0.1630954   0.7925328  )

     number of k points=    36  Marzari-Vanderbilt smearing, width (Ry)=  0.0050
                       cart. coord. in units 2pi/alat
        k(    1) = (   0.0000000   0.0000000   0.0000000), wk =   0.0166667
        k(    2) = (   0.0000000   0.0000000   0.2411685), wk =   0.0333333
        k(    3) = (   0.0000000   0.0000000   0.4823369), wk =   0.0333333
        k(    4) = (   0.0000000   0.2554743   0.0000000), wk =   0.0333333
        k(    5) = (   0.0000000   0.2554743   0.2411685), wk =   0.0666667
        k(    6) = (   0.0000000   0.2554743   0.4823369), wk =   0.0666667
        k(    7) = (   0.0000000   0.5109485   0.0000000), wk =   0.0333333
        k(    8) = (   0.0000000   0.5109485   0.2411685), wk =   0.0666667
        k(    9) = (   0.0000000   0.5109485   0.4823369), wk =   0.0666667
        k(   10) = (   0.0000000  -0.7664228   0.0000000), wk =   0.0166667
        k(   11) = (   0.0000000  -0.7664228   0.2411685), wk =   0.0333333
        k(   12) = (   0.0000000  -0.7664228   0.4823369), wk =   0.0333333
        k(   13) = (   0.2500000   0.0000000   0.0000000), wk =   0.0333333
        k(   14) = (   0.2500000   0.0000000   0.2411685), wk =   0.0666667
        k(   15) = (   0.2500000   0.0000000   0.4823369), wk =   0.0666667
        k(   16) = (   0.2500000   0.2554743   0.0000000), wk =   0.0666667
        k(   17) = (   0.2500000   0.2554743   0.2411685), wk =   0.1333333
        k(   18) = (   0.2500000   0.2554743   0.4823369), wk =   0.1333333
        k(   19) = (   0.2500000   0.5109485   0.0000000), wk =   0.0666667
        k(   20) = (   0.2500000   0.5109485   0.2411685), wk =   0.1333333
        k(   21) = (   0.2500000   0.5109485   0.4823369), wk =   0.1333333
        k(   22) = (   0.2500000  -0.7664228   0.0000000), wk =   0.0333333
        k(   23) = (   0.2500000  -0.7664228   0.2411685), wk =   0.0666667
        k(   24) = (   0.2500000  -0.7664228   0.4823369), wk =   0.0666667
        k(   25) = (  -0.5000000   0.0000000   0.0000000), wk =   0.0166667
        k(   26) = (  -0.5000000   0.0000000   0.2411685), wk =   0.0333333
        k(   27) = (  -0.5000000   0.0000000   0.4823369), wk =   0.0333333
        k(   28) = (  -0.5000000   0.2554743   0.0000000), wk =   0.0333333
        k(   29) = (  -0.5000000   0.2554743   0.2411685), wk =   0.0666667
        k(   30) = (  -0.5000000   0.2554743   0.4823369), wk =   0.0666667
        k(   31) = (  -0.5000000   0.5109485   0.0000000), wk =   0.0333333
        k(   32) = (  -0.5000000   0.5109485   0.2411685), wk =   0.0666667
        k(   33) = (  -0.5000000   0.5109485   0.4823369), wk =   0.0666667
        k(   34) = (  -0.5000000  -0.7664228   0.0000000), wk =   0.0166667
        k(   35) = (  -0.5000000  -0.7664228   0.2411685), wk =   0.0333333
        k(   36) = (  -0.5000000  -0.7664228   0.4823369), wk =   0.0333333

     Dense  grid:   301629 G-vectors     FFT dimensions: ( 108,  72,  90)

     Smooth grid:   216059 G-vectors     FFT dimensions: (  96,  60,  80)

     Estimated max dynamical RAM per process >      24.14 MB

     Estimated total dynamical RAM >       3.18 GB

     Check: negative core charge=   -0.000001

     Initial potential from superposition of free atoms

     starting charge      63.9154, renormalised to      64.0000
     Starting wfcs are   64 randomized atomic wfcs
     Checking if some PAW data can be deallocated... 

     total cpu time spent up to now is        1.4 secs

     Self-consistent Calculation

     iteration #  1     ecut=    75.00 Ry     beta= 0.70
     Davidson diagonalization with overlap
     ethr =  1.00E-02,  avg # of iterations =  4.1

     total cpu time spent up to now is        2.2 secs

     total energy              =    -628.95202524 Ry
     estimated scf accuracy    <       1.27026741 Ry

     iteration #  2     ecut=    75.00 Ry     beta= 0.70
     Davidson diagonalization with overlap
     ethr =  1.98E-03,  avg # of iterations =  2.0

     total cpu time spent up to now is        2.9 secs

     total energy              =    -629.06670129 Ry
     estimated scf accuracy    <       0.01370260 Ry

     iteration #  3     ecut=    75.00 Ry     beta= 0.70
     Davidson diagonalization with overlap
     ethr =  2.14E-05,  avg # of iterations = 12.7

     total cpu time spent up to now is        4.3 secs

     total energy              =    -629.07287398 Ry
     estimated scf accuracy    <       0.00072942 Ry

     iteration #  4     ecut=    75.00 Ry     beta= 0.70
     Davidson diagonalization with overlap
     c_bands:  1 eigenvalues not converged
     c_bands:  1 eigenvalues not converged
     ethr =  1.14E-06,  avg # of iterations =  7.2

     total cpu time spent up to now is        5.5 secs

     total energy              =    -629.07322282 Ry
     estimated scf accuracy    <       0.00004720 Ry

     iteration #  5     ecut=    75.00 Ry     beta= 0.70
     Davidson diagonalization with overlap
     ethr =  7.37E-08,  avg # of iterations =  2.9

     total cpu time spent up to now is        6.5 secs

     total energy              =    -629.07323538 Ry
     estimated scf accuracy    <       0.00000333 Ry

     iteration #  6     ecut=    75.00 Ry     beta= 0.70
     Davidson diagonalization with overlap
     ethr =  5.20E-09,  avg # of iterations =  3.9

     total cpu time spent up to now is        7.3 secs

     total energy              =    -629.07323648 Ry
     estimated scf accuracy    <       0.00000007 Ry

     iteration #  7     ecut=    75.00 Ry     beta= 0.70
     Davidson diagonalization with overlap
     ethr =  1.11E-10,  avg # of iterations =  4.6

     total cpu time spent up to now is        8.3 secs

     End of self-consistent calculation

          k = 0.0000 0.0000 0.0000 ( 26965 PWs)   bands (ev):

   -28.3456 -28.3424 -28.3423 -28.3411 -11.8933 -11.8815 -11.8776 -11.8750
   -11.8744 -11.8561 -11.8479 -11.8466 -11.8330 -11.8243 -11.8183 -11.8053
    -5.3428  -4.5847  -4.2583  -4.0301  -1.8541  -1.8234  -1.2446  -1.2405
    -1.2281  -1.2041  -1.2020  -0.9070  -0.8250  -0.7553  -0.7375  -0.4934
     4.5766   5.0982   5.2569   5.3736   5.4326   5.5094

          k = 0.0000 0.0000 0.2412 ( 26960 PWs)   bands (ev):

   -28.3453 -28.3427 -28.3421 -28.3411 -11.8961 -11.8796 -11.8788 -11.8740
   -11.8661 -11.8547 -11.8531 -11.8455 -11.8375 -11.8278 -11.8165 -11.8060
    -5.2683  -4.6316  -4.2634  -4.0481  -1.8846  -1.7414  -1.4708  -1.1973
    -1.1708  -1.1294  -1.0600  -0.8735  -0.8704  -0.8647  -0.7878  -0.5313
     4.7475   4.9183   5.1131   5.4183   5.4922   5.5444

          k = 0.0000 0.0000 0.4823 ( 26960 PWs)   bands (ev):

   -28.3446 -28.3436 -28.3418 -28.3414 -11.8957 -11.8889 -11.8715 -11.8638
   -11.8620 -11.8513 -11.8512 -11.8498 -11.8474 -11.8374 -11.8122 -11.8083
    -5.0685  -4.8162  -4.2083  -4.1123  -1.8614  -1.7045  -1.5078  -1.1933
    -1.1180  -1.0914  -0.9842  -0.9653  -0.9487  -0.9036  -0.7732  -0.6372
     4.7598   4.8358   5.1595   5.4978   5.7607   5.7929

          k = 0.0000 0.2555 0.0000 ( 26958 PWs)   bands (ev):

   -28.3454 -28.3426 -28.3422 -28.3411 -11.8923 -11.8834 -11.8768 -11.8749
   -11.8704 -11.8553 -11.8539 -11.8491 -11.8349 -11.8264 -11.8173 -11.8059
    -5.2532  -4.5454  -4.2851  -4.0571  -1.8768  -1.7598  -1.5349  -1.3708
    -1.1927  -1.1445  -1.1215  -0.9098  -0.8241  -0.7871  -0.7317  -0.5459
     4.7772   4.9645   5.2253   5.3200   5.6524   5.7349

          k = 0.0000 0.2555 0.2412 ( 27007 PWs)   bands (ev):

   -28.3451 -28.3429 -28.3421 -28.3412 -11.8933 -11.8857 -11.8802 -11.8682
   -11.8667 -11.8619 -11.8510 -11.8484 -11.8366 -11.8285 -11.8157 -11.8066
    -5.1821  -4.5904  -4.2776  -4.0717  -1.8692  -1.8092  -1.4760  -1.3551
    -1.3033  -1.1566  -1.1043  -0.9728  -0.8654  -0.7191  -0.6496  -0.5792
     4.8755   4.9833   5.0846   5.4155   5.6512   5.6935

          k = 0.0000 0.2555 0.4823 ( 27013 PWs)   bands (ev):

   -28.3445 -28.3436 -28.3418 -28.3414 -11.8925 -11.8873 -11.8834 -11.8742
   -11.8614 -11.8541 -11.8534 -11.8429 -11.8422 -11.8341 -11.8122 -11.8088
    -4.9933  -4.7596  -4.2146  -4.1265  -1.8081  -1.7385  -1.6545  -1.5063
    -1.2611  -1.1865  -1.0865  -0.9241  -0.8302  -0.7287  -0.6235  -0.6086
     4.8921   4.9138   5.2357   5.6297   5.7099   5.9457

          k = 0.0000 0.5109 0.0000 ( 27000 PWs)   bands (ev):

   -28.3447 -28.3431 -28.3419 -28.3413 -11.8900 -11.8843 -11.8815 -11.8684
   -11.8672 -11.8617 -11.8546 -11.8510 -11.8413 -11.8327 -11.8145 -11.8079
    -5.0087  -4.4363  -4.4147  -4.1451  -1.8921  -1.7419  -1.6115  -1.5751
    -1.2928  -1.0873  -1.0159  -1.0117  -0.9891  -0.7891  -0.6808  -0.6583
     4.8794   5.3152   5.3784   5.4396   5.9070   6.0207

          k = 0.0000 0.5109 0.2412 ( 26994 PWs)   bands (ev):

   -28.3446 -28.3433 -28.3419 -28.3414 -11.8913 -11.8879 -11.8828 -11.8768
   -11.8680 -11.8583 -11.8545 -11.8436 -11.8411 -11.8308 -11.8137 -11.8085
    -4.9494  -4.5055  -4.3448  -4.1507  -1.9617  -1.8529  -1.5894  -1.5486
    -1.3096  -1.2838  -1.1368  -0.8725  -0.8459  -0.7837  -0.6784  -0.5437
     5.0068   5.2863   5.3260   5.4001   5.8039   5.8274

          k = 0.0000 0.5109 0.4823 ( 27005 PWs)   bands (ev):

   -28.3442 -28.3437 -28.3417 -28.3415 -11.8953 -11.8901 -11.8849 -11.8837
   -11.8700 -11.8628 -11.8460 -11.8400 -11.8351 -11.8307 -11.8119 -11.8099
    -4.7985  -4.6279  -4.2546  -4.1826  -2.0528  -1.9156  -1.6670  -1.5665
    -1.4330  -1.3968  -1.0266  -0.9044  -0.8087  -0.7107  -0.5490  -0.4765
     5.1123   5.1514   5.4614   5.5694   5.8172   5.8804

          k = 0.0000-0.7664 0.0000 ( 27022 PWs)   bands (ev):

   -28.3439 -28.3439 -28.3416 -28.3416 -11.8866 -11.8866 -11.8791 -11.8791
   -11.8611 -11.8611 -11.8510 -11.8510 -11.8422 -11.8422 -11.8110 -11.8110
    -4.6868  -4.6868  -4.2863  -4.2863  -1.8061  -1.8061  -1.6379  -1.6379
    -1.3168  -1.3168  -0.8976  -0.8976  -0.8756  -0.8756  -0.7687  -0.7687
     5.1241   5.1241   5.7642   5.7642   5.9162   5.9162

          k = 0.0000-0.7664 0.2412 ( 27018 PWs)   bands (ev):

   -28.3439 -28.3439 -28.3416 -28.3416 -11.8893 -11.8893 -11.8843 -11.8843
   -11.8619 -11.8619 -11.8495 -11.8495 -11.8361 -11.8361 -11.8111 -11.8111
    -4.6558  -4.6558  -4.2798  -4.2798  -1.9001  -1.9001  -1.7452  -1.7452
    -1.1674  -1.1674  -1.0797  -1.0797  -0.8344  -0.8344  -0.6099  -0.6099
     5.2494   5.2494   5.4575   5.4575   5.9657   5.9658

          k = 0.0000-0.7664 0.4823 ( 26988 PWs)   bands (ev):

   -28.3439 -28.3439 -28.3416 -28.3416 -11.8983 -11.8983 -11.8809 -11.8809
   -11.8707 -11.8707 -11.8418 -11.8418 -11.8309 -11.8309 -11.8111 -11.8111
    -4.6008  -4.6008  -4.2720  -4.2720  -2.1254  -2.1254  -1.6192  -1.6192
    -1.4182  -1.4182  -0.9956  -0.9956  -0.7381  -0.7381  -0.4981  -0.4981
     5.1899   5.1899   5.7435   5.7435   5.8670   5.8670

          k = 0.2500 0.0000 0.0000 ( 26958 PWs)   bands (ev):

   -28.3452 -28.3429 -28.3421 -28.3412 -11.8845 -11.8825 -11.8784 -11.8776
   -11.8611 -11.8586 -11.8471 -11.8456 -11.8351 -11.8259 -11.8245 -11.8130
    -5.2588  -4.7418  -4.2172  -4.0400  -1.8763  -1.6004  -1.4820  -1.2247
    -1.2077  -1.1453  -1.0558  -0.9698  -0.8124  -0.7546  -0.7505  -0.5711
     4.6826   4.9184   5.0009   5.3251   5.4001   5.5193

          k = 0.2500 0.0000 0.2412 ( 26965 PWs)   bands (ev):

   -28.3449 -28.3428 -28.3423 -28.3413 -11.8879 -11.8830 -11.8759 -11.8675
   -11.8616 -11.8601 -11.8504 -11.8458 -11.8387 -11.8319 -11.8213 -11.8121
    -5.1889  -4.7330  -4.2663  -4.0762  -1.8374  -1.6192  -1.4482  -1.1934
    -1.1764  -1.1747  -1.0123  -0.9587  -0.8536  -0.8259  -0.7993  -0.6133
     4.8478   4.8529   5.0641   5.2880   5.3983   5.4115

          k = 0.2500 0.0000 0.4823 ( 27010 PWs)   bands (ev):

   -28.3442 -28.3434 -28.3421 -28.3417 -11.8884 -11.8840 -11.8694 -11.8618
   -11.8609 -11.8542 -11.8523 -11.8495 -11.8487 -11.8417 -11.8164 -11.8128
    -5.0064  -4.8047  -4.2855  -4.1806  -1.7481  -1.6029  -1.4445  -1.1945
    -1.1134  -1.0944  -1.0336  -0.9807  -0.9432  -0.9110  -0.8234  -0.7228
     4.8301   4.9627   5.2373   5.4375   5.4957   5.5777

          k = 0.2500 0.2555 0.0000 ( 26956 PWs)   bands (ev):

   -28.3449 -28.3427 -28.3423 -28.3413 -11.8827 -11.8817 -11.8803 -11.8736
   -11.8617 -11.8607 -11.8531 -11.8457 -11.8372 -11.8264 -11.8247 -11.8132
    -5.1739  -4.6899  -4.2463  -4.0725  -1.8442  -1.6198  -1.5124  -1.4092
    -1.2869  -1.1759  -1.0208  -0.8613  -0.8222  -0.7983  -0.7670  -0.6249
     4.8293   4.8464   5.1899   5.1987   5.6173   5.6620

          k = 0.2500 0.2555 0.2412 ( 26994 PWs)   bands (ev):

   -28.3447 -28.3428 -28.3424 -28.3414 -11.8868 -11.8849 -11.8738 -11.8710
   -11.8624 -11.8613 -11.8532 -11.8474 -11.8379 -11.8302 -11.8214 -11.8130
    -5.1073  -4.6820  -4.2795  -4.1012  -1.8622  -1.6323  -1.5100  -1.3443
    -1.3262  -1.1588  -1.0464  -0.9744  -0.8705  -0.7518  -0.7093  -0.6155
     4.8958   4.9273   5.1107   5.2420   5.5346   5.7134

          k = 0.2500 0.2555 0.4823 ( 27014 PWs)   bands (ev):

   -28.3441 -28.3434 -28.3421 -28.3417 -11.8874 -11.8868 -11.8742 -11.8706
   -11.8645 -11.8584 -11.8507 -11.8448 -11.8423 -11.8365 -11.8170 -11.8139
    -4.9353  -4.7486  -4.2820  -4.1874  -1.8066  -1.6559  -1.5563  -1.4017
    -1.2988  -1.1940  -1.1043  -0.9559  -0.8365  -0.7274  -0.7139  -0.6453
     4.9442   4.9876   5.2194   5.4787   5.5048   5.7328

          k = 0.2500 0.5109 0.0000 ( 26987 PWs)   bands (ev):

   -28.3443 -28.3428 -28.3424 -28.3415 -11.8822 -11.8812 -11.8789 -11.8669
   -11.8650 -11.8640 -11.8602 -11.8450 -11.8438 -11.8323 -11.8215 -11.8146
    -4.9422  -4.5476  -4.3759  -4.1798  -1.8148  -1.7059  -1.5671  -1.4879
    -1.3445  -1.2096  -1.0586  -1.0066  -0.8588  -0.7797  -0.7724  -0.7004
     4.8346   5.2732   5.3122   5.4662   5.7181   5.8064

          k = 0.2500 0.5109 0.2412 ( 26997 PWs)   bands (ev):

   -28.3442 -28.3430 -28.3423 -28.3416 -11.8905 -11.8818 -11.8757 -11.8735
   -11.8712 -11.8615 -11.8515 -11.8454 -11.8399 -11.8308 -11.8205 -11.8152
    -4.8871  -4.5484  -4.3641  -4.1900  -1.9512  -1.7370  -1.5613  -1.5276
    -1.3859  -1.2602  -1.0924  -0.9192  -0.8566  -0.7663  -0.7169  -0.5957
     4.9281   5.0652   5.4342   5.4949   5.7138   5.8111

          k = 0.2500 0.5109 0.4823 ( 27009 PWs)   bands (ev):

   -28.3439 -28.3434 -28.3420 -28.3418 -11.8949 -11.8904 -11.8768 -11.8765
   -11.8715 -11.8641 -11.8445 -11.8399 -11.8361 -11.8313 -11.8183 -11.8165
    -4.7504  -4.6100  -4.3074  -4.2325  -2.0346  -1.9028  -1.5915  -1.5690
    -1.4565  -1.3187  -1.0309  -0.9302  -0.7884  -0.7039  -0.6130  -0.5372
     5.0254   5.0830   5.3296   5.5426   5.8293   6.0576

          k = 0.2500-0.7664 0.0000 ( 26984 PWs)   bands (ev):

   -28.3436 -28.3436 -28.3419 -28.3419 -11.8808 -11.8808 -11.8769 -11.8769
   -11.8621 -11.8621 -11.8539 -11.8539 -11.8400 -11.8400 -11.8177 -11.8177
    -4.6369  -4.6369  -4.3561  -4.3561  -1.7320  -1.7320  -1.6196  -1.6196
    -1.2825  -1.2825  -1.0168  -1.0168  -0.8906  -0.8906  -0.7461  -0.7461
     5.0619   5.0620   5.6330   5.6330   6.1268   6.1269

          k = 0.2500-0.7664 0.2412 ( 27006 PWs)   bands (ev):

   -28.3436 -28.3436 -28.3419 -28.3419 -11.8883 -11.8883 -11.8774 -11.8774
   -11.8646 -11.8646 -11.8482 -11.8482 -11.8359 -11.8359 -11.8180 -11.8180
    -4.6086  -4.6086  -4.3446  -4.3446  -1.8677  -1.8677  -1.6928  -1.6928
    -1.2170  -1.2170  -1.0688  -1.0688  -0.8159  -0.8159  -0.6610  -0.6610
     5.0668   5.0668   5.5931   5.5931   5.9458   5.9460

          k = 0.2500-0.7664 0.4823 ( 26984 PWs)   bands (ev):

   -28.3436 -28.3436 -28.3419 -28.3419 -11.8968 -11.8968 -11.8783 -11.8783
   -11.8683 -11.8683 -11.8408 -11.8408 -11.8310 -11.8310 -11.8186 -11.8186
    -4.5589  -4.5589  -4.3276  -4.3276  -2.0779  -2.0779  -1.6912  -1.6912
    -1.3465  -1.3465  -0.9717  -0.9717  -0.7273  -0.7273  -0.5706  -0.5706
     5.0873   5.0873   5.6011   5.6012   5.9505   5.9508

          k =-0.5000 0.0000 0.0000 ( 27002 PWs)   bands (ev):

   -28.3441 -28.3441 -28.3416 -28.3416 -11.8832 -11.8832 -11.8704 -11.8704
   -11.8567 -11.8567 -11.8457 -11.8457 -11.8374 -11.8374 -11.8238 -11.8238
    -5.0306  -5.0306  -4.1192  -4.1192  -1.7322  -1.7322  -1.2478  -1.2478
    -1.2163  -1.2163  -1.0092  -1.0092  -0.7816  -0.7816  -0.7060  -0.7060
     4.8222   4.8222   4.9694   4.9694   5.3654   5.3654

          k =-0.5000 0.0000 0.2412 ( 26982 PWs)   bands (ev):

   -28.3439 -28.3439 -28.3418 -28.3418 -11.8818 -11.8818 -11.8685 -11.8685
   -11.8554 -11.8554 -11.8476 -11.8476 -11.8440 -11.8440 -11.8211 -11.8211
    -4.9775  -4.9775  -4.1806  -4.1806  -1.6868  -1.6868  -1.2337  -1.2337
    -1.1841  -1.1841  -1.0347  -1.0347  -0.8266  -0.8266  -0.7562  -0.7562
     4.8664   4.8664   5.1117   5.1117   5.2723   5.2723

          k =-0.5000 0.0000 0.4823 ( 26976 PWs)   bands (ev):

   -28.3434 -28.3434 -28.3422 -28.3422 -11.8781 -11.8781 -11.8646 -11.8646
   -11.8543 -11.8543 -11.8528 -11.8528 -11.8515 -11.8515 -11.8189 -11.8189
    -4.8676  -4.8676  -4.3050  -4.3050  -1.5732  -1.5732  -1.2534  -1.2534
    -1.1031  -1.1031  -1.0584  -1.0584  -0.9280  -0.9280  -0.8542  -0.8542
     4.9878   4.9878   5.3815   5.3815   5.4051   5.4052

          k =-0.5000 0.2555 0.0000 ( 26940 PWs)   bands (ev):

   -28.3439 -28.3439 -28.3418 -28.3418 -11.8800 -11.8800 -11.8723 -11.8723
   -11.8572 -11.8572 -11.8512 -11.8512 -11.8353 -11.8353 -11.8249 -11.8249
    -4.9592  -4.9592  -4.1527  -4.1527  -1.6792  -1.6792  -1.4808  -1.4808
    -1.1366  -1.1366  -1.0222  -1.0222  -0.7766  -0.7766  -0.7482  -0.7482
     4.8148   4.8148   5.1603   5.1604   5.4054   5.4055

          k =-0.5000 0.2555 0.2412 ( 26980 PWs)   bands (ev):

   -28.3437 -28.3437 -28.3419 -28.3419 -11.8824 -11.8824 -11.8674 -11.8674
   -11.8599 -11.8599 -11.8516 -11.8516 -11.8380 -11.8380 -11.8226 -11.8226
    -4.9090  -4.9090  -4.1995  -4.1995  -1.7179  -1.7179  -1.3998  -1.3998
    -1.1856  -1.1856  -1.0065  -1.0065  -0.8797  -0.8797  -0.6831  -0.6831
     4.8874   4.8874   5.1936   5.1936   5.3962   5.3962

          k =-0.5000 0.2555 0.4823 ( 26988 PWs)   bands (ev):

   -28.3433 -28.3433 -28.3423 -28.3423 -11.8831 -11.8831 -11.8668 -11.8668
   -11.8599 -11.8599 -11.8516 -11.8516 -11.8420 -11.8420 -11.8203 -11.8203
    -4.8062  -4.8062  -4.2988  -4.2988  -1.7212  -1.7212  -1.3270  -1.3270
    -1.2352  -1.2352  -1.0993  -1.0993  -0.8290  -0.8290  -0.7083  -0.7083
     5.0669   5.0669   5.1795   5.1795   5.5741   5.5745

          k =-0.5000 0.5109 0.0000 ( 27024 PWs)   bands (ev):

   -28.3434 -28.3434 -28.3422 -28.3422 -11.8754 -11.8754 -11.8711 -11.8711
   -11.8656 -11.8656 -11.8545 -11.8545 -11.8338 -11.8338 -11.8277 -11.8277
    -4.7643  -4.7643  -4.2783  -4.2783  -1.6755  -1.6755  -1.5157  -1.5157
    -1.3223  -1.3223  -0.9357  -0.9357  -0.9292  -0.9292  -0.7562  -0.7562
     4.9532   4.9532   5.4035   5.4035   5.6510   5.6510

          k =-0.5000 0.5109 0.2412 ( 27010 PWs)   bands (ev):

   -28.3433 -28.3433 -28.3423 -28.3423 -11.8837 -11.8837 -11.8725 -11.8725
   -11.8615 -11.8615 -11.8508 -11.8508 -11.8340 -11.8340 -11.8264 -11.8264
    -4.7238  -4.7238  -4.2901  -4.2901  -1.8191  -1.8191  -1.5090  -1.5090
    -1.3025  -1.3025  -1.0031  -1.0031  -0.8520  -0.8520  -0.6820  -0.6820
     4.9659   4.9660   5.3626   5.3626   5.7157   5.7159

          k =-0.5000 0.5109 0.4823 ( 27012 PWs)   bands (ev):

   -28.3431 -28.3431 -28.3425 -28.3425 -11.8892 -11.8892 -11.8805 -11.8805
   -11.8531 -11.8531 -11.8486 -11.8486 -11.8351 -11.8351 -11.8242 -11.8242
    -4.6439  -4.6439  -4.3242  -4.3242  -1.9356  -1.9356  -1.6516  -1.6516
    -1.1797  -1.1797  -1.0755  -1.0755  -0.7574  -0.7574  -0.6240  -0.6240
     5.0744   5.0744   5.2299   5.2299   6.0151   6.0153

          k =-0.5000-0.7664 0.0000 ( 27024 PWs)   bands (ev):

   -28.3428 -28.3428 -28.3428 -28.3428 -11.8735 -11.8735 -11.8735 -11.8735
   -11.8612 -11.8612 -11.8612 -11.8612 -11.8312 -11.8312 -11.8312 -11.8312
    -4.5060  -4.5060  -4.5060  -4.5060  -1.6238  -1.6238  -1.6238  -1.6238
    -1.1919  -1.1919  -1.1919  -1.1919  -0.8212  -0.8212  -0.8212  -0.8212
     5.2161   5.2161   5.2161   5.2161   6.3429   6.3429

          k =-0.5000-0.7664 0.2412 ( 27016 PWs)   bands (ev):

   -28.3428 -28.3428 -28.3428 -28.3428 -11.8813 -11.8813 -11.8813 -11.8813
   -11.8543 -11.8543 -11.8543 -11.8543 -11.8306 -11.8306 -11.8306 -11.8306
    -4.4851  -4.4851  -4.4851  -4.4851  -1.7530  -1.7530  -1.7530  -1.7530
    -1.1404  -1.1404  -1.1404  -1.1404  -0.7621  -0.7621  -0.7621  -0.7621
     5.1905   5.1905   5.1905   5.1905   6.2783   6.2783

          k =-0.5000-0.7664 0.4823 ( 27008 PWs)   bands (ev):

   -28.3428 -28.3428 -28.3428 -28.3428 -11.8889 -11.8889 -11.8889 -11.8889
   -11.8485 -11.8485 -11.8485 -11.8485 -11.8296 -11.8296 -11.8296 -11.8296
    -4.4500  -4.4500  -4.4500  -4.4500  -1.9142  -1.9142  -1.9142  -1.9142
    -1.0924  -1.0924  -1.0924  -1.0924  -0.6817  -0.6817  -0.6817  -0.6817
     5.2083   5.2083   5.2083   5.2084   6.1675   6.1676

     the Fermi energy is     2.5171 ev

!    total energy              =    -629.07323654 Ry
     estimated scf accuracy    <          5.9E-09 Ry
     smearing contrib. (-TS)   =       0.00000000 Ry
     internal energy E=F+TS    =    -629.07323654 Ry

     The total energy is F=E-TS. E is the sum of the following terms:
     one-electron contribution =    -109.51284982 Ry
     hartree contribution      =      71.33389145 Ry
     xc contribution           =     -66.61695250 Ry
     ewald contribution        =    -163.80231520 Ry
     one-center paw contrib.   =    -360.47501048 Ry

     convergence has been achieved in   7 iterations

     Forces acting on atoms (cartesian axes, Ry/au):

     atom    1 type  3   force =     0.00005891    0.00000000   -0.00015615
     atom    2 type  3   force =    -0.00005891    0.00000000   -0.00015615
     atom    3 type  3   force =    -0.00005891   -0.00000000    0.00015615
     atom    4 type  3   force =     0.00005891    0.00000000    0.00015615
     atom    5 type  1   force =    -0.00035223    0.00000000   -0.00158273
     atom    6 type  1   force =     0.00035223    0.00000000   -0.00158273
     atom    7 type  1   force =     0.00035223   -0.00000000    0.00158273
     atom    8 type  1   force =    -0.00035223    0.00000000    0.00158273
     atom    9 type  2   force =     0.00065601   -0.00385666    0.00345972
     atom   10 type  2   force =    -0.00065601   -0.00385666    0.00345972
     atom   11 type  2   force =    -0.00065601    0.00385666    0.00345972
     atom   12 type  2   force =    -0.00065601   -0.00385666   -0.00345972
     atom   13 type  2   force =    -0.00065601    0.00385666   -0.00345972
     atom   14 type  2   force =     0.00065601    0.00385666   -0.00345972
     atom   15 type  2   force =     0.00065601   -0.00385666   -0.00345972
     atom   16 type  2   force =     0.00065601    0.00385666    0.00345972
     atom   17 type  2   force =     0.00404833    0.00000000    0.00190472
     atom   18 type  2   force =    -0.00404833    0.00000000    0.00190472
     atom   19 type  2   force =    -0.00404833   -0.00000000   -0.00190472
     atom   20 type  2   force =     0.00404833    0.00000000   -0.00190472
     atom   21 type  2   force =     0.00380804   -0.00000000   -0.00311227
     atom   22 type  2   force =    -0.00380804    0.00000000   -0.00311227
     atom   23 type  2   force =    -0.00380804   -0.00000000    0.00311227
     atom   24 type  2   force =     0.00380804    0.00000000    0.00311227

     Total force =     0.020140     Total SCF correction =     0.000075


     Computing stress (Cartesian axis) and pressure

          total   stress  (Ry/bohr**3)                   (kbar)     P=        9.33
   0.00006270   0.00000000   0.00000000            9.22        0.00        0.00
   0.00000000   0.00006316   0.00000000            0.00        9.29        0.00
   0.00000000   0.00000000   0.00006437            0.00        0.00        9.47


     BFGS Geometry Optimization
     Energy error            =      0.0E+00 Ry
     Gradient error          =      4.0E-03 Ry/Bohr

     number of scf cycles    =   1
     number of bfgs steps    =   0

     energy             new  =    -629.0732365414 Ry

     new trust radius        =       0.0052224329 bohr
     new conv_thr            =       0.0000000100 Ry


ATOMIC_POSITIONS (crystal)
K             0.1764604756        0.2500000000        0.1653605161
K             0.3235395244        0.7500000000        0.6653605161
K             0.8235395244        0.7500000000        0.8346394839
K             0.6764604756        0.2500000000        0.3346394839
Al            0.0687725120        0.2500000000        0.6793328553
Al            0.4312274880        0.7500000000        0.1793328553
Al            0.9312274880        0.7500000000        0.3206671447
Al            0.5687725120        0.2500000000        0.8206671447
H             0.0778930921        0.0202808751        0.8110508442
H             0.4221069079        0.5202808751        0.3110508442
H             0.4221069079        0.9797191249        0.3110508442
H             0.9221069079        0.5202808751        0.1889491558
H             0.9221069079        0.9797191249        0.1889491558
H             0.5778930921        0.4797191249        0.6889491558
H             0.5778930921        0.0202808751        0.6889491558
H             0.0778930921        0.4797191249        0.8110508442
H             0.0902620877        0.7500000000        0.4341158381
H             0.4097379123        0.2500000000        0.9341158381
H             0.9097379123        0.2500000000        0.5658841619
H             0.5902620877        0.7500000000        0.0658841619
H             0.2161711159        0.2500000000        0.5441038817
H             0.2838288841        0.7500000000        0.0441038817
H             0.7838288841        0.7500000000        0.4558961183
H             0.7161711159        0.2500000000        0.9558961183



     Writing config-only to output data dir ./kalh4.save/
     NEW-OLD atomic charge density approx. for the potential

     Check: negative core charge=   -0.000001

     total cpu time spent up to now is        9.7 secs

     Self-consistent Calculation

     iteration #  1     ecut=    75.00 Ry     beta= 0.70
     Davidson diagonalization with overlap
     ethr =  1.00E-06,  avg # of iterations =  2.0

     Threshold (ethr) on eigenvalues was too large:
     Diagonalizing with lowered threshold

     Davidson diagonalization with overlap
     ethr =  3.88E-08,  avg # of iterations =  4.0

     total cpu time spent up to now is       11.1 secs

     total energy              =    -629.07358131 Ry
     estimated scf accuracy    <       0.00003668 Ry

     iteration #  2     ecut=    75.00 Ry     beta= 0.70
     Davidson diagonalization with overlap
     ethr =  5.73E-08,  avg # of iterations =  2.0

     total cpu time spent up to now is       11.8 secs

     total energy              =    -629.07358945 Ry
     estimated scf accuracy    <       0.00000245 Ry

     iteration #  3     ecut=    75.00 Ry     beta= 0.70
     Davidson diagonalization with overlap
     ethr =  3.83E-09,  avg # of iterations =  2.0

     total cpu time spent up to now is       12.5 secs

     total energy              =    -629.07358982 Ry
     estimated scf accuracy    <       0.00000008 Ry

     iteration #  4     ecut=    75.00 Ry     beta= 0.70
     Davidson diagonalization with overlap
     ethr =  1.28E-10,  avg # of iterations =  2.3

     total cpu time spent up to now is       13.2 secs

     End of self-consistent calculation

          k = 0.0000 0.0000 0.0000 ( 26965 PWs)   bands (ev):

   -28.3415 -28.3383 -28.3382 -28.3370 -11.8895 -11.8777 -11.8737 -11.8712
   -11.8707 -11.8523 -11.8440 -11.8428 -11.8292 -11.8203 -11.8143 -11.8012
    -5.3383  -4.5781  -4.2495  -4.0217  -1.8552  -1.8235  -1.2438  -1.2405
    -1.2222  -1.2009  -1.1982  -0.9082  -0.8175  -0.7519  -0.7296  -0.4913
     4.5701   5.0946   5.2545   5.3739   5.4288   5.5019

          k = 0.0000 0.0000 0.2412 ( 26960 PWs)   bands (ev):

   -28.3413 -28.3387 -28.3381 -28.3371 -11.8923 -11.8758 -11.8750 -11.8702
   -11.8623 -11.8509 -11.8493 -11.8416 -11.8337 -11.8239 -11.8125 -11.8019
    -5.2637  -4.6251  -4.2549  -4.0396  -1.8858  -1.7410  -1.4710  -1.1913
    -1.1648  -1.1287  -1.0590  -0.8743  -0.8668  -0.8573  -0.7801  -0.5294
     4.7412   4.9142   5.1111   5.4170   5.4882   5.5371

          k = 0.0000 0.0000 0.4823 ( 26960 PWs)   bands (ev):

   -28.3405 -28.3395 -28.3377 -28.3373 -11.8920 -11.8852 -11.8677 -11.8600
   -11.8581 -11.8475 -11.8474 -11.8459 -11.8436 -11.8335 -11.8081 -11.8043
    -5.0634  -4.8103  -4.2001  -4.1039  -1.8625  -1.7052  -1.5067  -1.1922
    -1.1119  -1.0854  -0.9815  -0.9637  -0.9414  -0.8962  -0.7731  -0.6361
     4.7558   4.8327   5.1532   5.4911   5.7588   5.7891

          k = 0.0000 0.2555 0.0000 ( 26958 PWs)   bands (ev):

   -28.3413 -28.3385 -28.3381 -28.3371 -11.8885 -11.8796 -11.8730 -11.8711
   -11.8667 -11.8515 -11.8501 -11.8453 -11.8311 -11.8224 -11.8133 -11.8019
    -5.2485  -4.5387  -4.2766  -4.0486  -1.8779  -1.7598  -1.5320  -1.3696
    -1.1873  -1.1433  -1.1212  -0.9026  -0.8209  -0.7804  -0.7298  -0.5439
     4.7712   4.9587   5.2224   5.3180   5.6483   5.7359

          k = 0.0000 0.2555 0.2412 ( 27007 PWs)   bands (ev):

   -28.3411 -28.3388 -28.3380 -28.3371 -11.8895 -11.8819 -11.8765 -11.8645
   -11.8628 -11.8581 -11.8471 -11.8445 -11.8328 -11.8245 -11.8117 -11.8026
    -5.1773  -4.5838  -4.2692  -4.0632  -1.8704  -1.8086  -1.4757  -1.3522
    -1.2999  -1.1524  -1.1023  -0.9688  -0.8610  -0.7136  -0.6462  -0.5775
     4.8693   4.9782   5.0808   5.4138   5.6491   5.6903

          k = 0.0000 0.2555 0.4823 ( 27013 PWs)   bands (ev):

   -28.3404 -28.3395 -28.3377 -28.3373 -11.8888 -11.8836 -11.8796 -11.8704
   -11.8576 -11.8503 -11.8496 -11.8391 -11.8383 -11.8302 -11.8081 -11.8048
    -4.9880  -4.7535  -4.2063  -4.1180  -1.8092  -1.7372  -1.6552  -1.5042
    -1.2565  -1.1826  -1.0827  -0.9202  -0.8267  -0.7234  -0.6217  -0.6056
     4.8877   4.9097   5.2298   5.6238   5.7089   5.9431

          k = 0.0000 0.5109 0.0000 ( 27000 PWs)   bands (ev):

   -28.3407 -28.3390 -28.3378 -28.3372 -11.8862 -11.8805 -11.8778 -11.8646
   -11.8634 -11.8579 -11.8508 -11.8471 -11.8375 -11.8287 -11.8105 -11.8039
    -5.0035  -4.4290  -4.4070  -4.1366  -1.8929  -1.7388  -1.6108  -1.5745
    -1.2869  -1.0839  -1.0159  -1.0077  -0.9881  -0.7833  -0.6788  -0.6553
     4.8735   5.3113   5.3735   5.4382   5.9065   6.0191

          k = 0.0000 0.5109 0.2412 ( 26994 PWs)   bands (ev):

   -28.3405 -28.3392 -28.3378 -28.3373 -11.8874 -11.8841 -11.8790 -11.8731
   -11.8642 -11.8545 -11.8507 -11.8397 -11.8373 -11.8268 -11.8097 -11.8045
    -4.9440  -4.4983  -4.3370  -4.1423  -1.9602  -1.8537  -1.5886  -1.5450
    -1.3078  -1.2810  -1.1353  -0.8689  -0.8418  -0.7788  -0.6771  -0.5400
     5.0009   5.2820   5.3214   5.3992   5.8016   5.8266

          k = 0.0000 0.5109 0.4823 ( 27005 PWs)   bands (ev):

   -28.3401 -28.3396 -28.3376 -28.3374 -11.8914 -11.8862 -11.8812 -11.8800
   -11.8662 -11.8590 -11.8422 -11.8362 -11.8312 -11.8268 -11.8079 -11.8059
    -4.7926  -4.6213  -4.2466  -4.1743  -2.0515  -1.9140  -1.6673  -1.5664
    -1.4301  -1.3951  -1.0232  -0.9014  -0.8048  -0.7057  -0.5463  -0.4729
     5.1082   5.1477   5.4561   5.5666   5.8161   5.8770

          k = 0.0000-0.7664 0.0000 ( 27022 PWs)   bands (ev):

   -28.3398 -28.3398 -28.3375 -28.3375 -11.8829 -11.8829 -11.8753 -11.8753
   -11.8574 -11.8574 -11.8473 -11.8473 -11.8382 -11.8382 -11.8070 -11.8070
    -4.6805  -4.6805  -4.2784  -4.2784  -1.8063  -1.8063  -1.6334  -1.6334
    -1.3157  -1.3157  -0.8922  -0.8922  -0.8765  -0.8765  -0.7649  -0.7649
     5.1192   5.1192   5.7638   5.7638   5.9141   5.9141

          k = 0.0000-0.7664 0.2412 ( 27018 PWs)   bands (ev):

   -28.3398 -28.3398 -28.3375 -28.3375 -11.8854 -11.8854 -11.8806 -11.8806
   -11.8581 -11.8581 -11.8457 -11.8457 -11.8322 -11.8322 -11.8071 -11.8071
    -4.6494  -4.6494  -4.2719  -4.2719  -1.8978  -1.8978  -1.7449  -1.7449
    -1.1659  -1.1659  -1.0764  -1.0764  -0.8312  -0.8312  -0.6067  -0.6067
     5.2444   5.2444   5.4566   5.4566   5.9619   5.9619

          k = 0.0000-0.7664 0.4823 ( 26988 PWs)   bands (ev):

   -28.3398 -28.3398 -28.3375 -28.3375 -11.8944 -11.8944 -11.8772 -11.8772
   -11.8669 -11.8669 -11.8380 -11.8380 -11.8270 -11.8270 -11.8071 -11.8071
    -4.5940  -4.5940  -4.2642  -4.2642  -2.1238  -2.1238  -1.6185  -1.6185
    -1.4175  -1.4175  -0.9927  -0.9927  -0.7331  -0.7331  -0.4952  -0.4952
     5.1877   5.1877   5.7398   5.7398   5.8618   5.8618

          k = 0.2500 0.0000 0.0000 ( 26958 PWs)   bands (ev):

   -28.3411 -28.3388 -28.3381 -28.3371 -11.8807 -11.8788 -11.8746 -11.8738
   -11.8572 -11.8548 -11.8433 -11.8417 -11.8314 -11.8219 -11.8204 -11.8090
    -5.2542  -4.7358  -4.2084  -4.0313  -1.8775  -1.6003  -1.4825  -1.2188
    -1.2018  -1.1443  -1.0550  -0.9696  -0.8048  -0.7514  -0.7426  -0.5692
     4.6761   4.9153   4.9970   5.3180   5.3949   5.5203

          k = 0.2500 0.0000 0.2412 ( 26965 PWs)   bands (ev):

   -28.3408 -28.3387 -28.3382 -28.3372 -11.8841 -11.8793 -11.8721 -11.8637
   -11.8578 -11.8563 -11.8465 -11.8419 -11.8349 -11.8280 -11.8172 -11.8080
    -5.1841  -4.7269  -4.2580  -4.0676  -1.8386  -1.6188  -1.4486  -1.1875
    -1.1756  -1.1687  -1.0122  -0.9564  -0.8462  -0.8238  -0.7916  -0.6115
     4.8414   4.8490   5.0609   5.2854   5.3952   5.4044

          k = 0.2500 0.0000 0.4823 ( 27010 PWs)   bands (ev):

   -28.3401 -28.3393 -28.3380 -28.3376 -11.8846 -11.8803 -11.8655 -11.8580
   -11.8570 -11.8504 -11.8484 -11.8457 -11.8448 -11.8379 -11.8123 -11.8088
    -5.0011  -4.7989  -4.2777  -4.1725  -1.7490  -1.6033  -1.4433  -1.1936
    -1.1073  -1.0883  -1.0313  -0.9793  -0.9359  -0.9037  -0.8228  -0.7216
     4.8263   4.9596   5.2309   5.4342   5.4890   5.5744

          k = 0.2500 0.2555 0.0000 ( 26956 PWs)   bands (ev):

   -28.3409 -28.3386 -28.3382 -28.3372 -11.8788 -11.8781 -11.8765 -11.8699
   -11.8578 -11.8569 -11.8492 -11.8419 -11.8335 -11.8224 -11.8206 -11.8092
    -5.1690  -4.6837  -4.2377  -4.0638  -1.8455  -1.6192  -1.5097  -1.4093
    -1.2848  -1.1710  -1.0173  -0.8563  -0.8189  -0.7956  -0.7610  -0.6230
     4.8234   4.8418   5.1864   5.1941   5.6152   5.6595

          k = 0.2500 0.2555 0.2412 ( 26994 PWs)   bands (ev):

   -28.3406 -28.3387 -28.3383 -28.3373 -11.8830 -11.8811 -11.8700 -11.8672
   -11.8586 -11.8575 -11.8494 -11.8435 -11.8342 -11.8262 -11.8174 -11.8090
    -5.1023  -4.6757  -4.2712  -4.0926  -1.8630  -1.6316  -1.5097  -1.3415
    -1.3241  -1.1543  -1.0420  -0.9717  -0.8670  -0.7484  -0.7042  -0.6126
     4.8910   4.9220   5.1057   5.2387   5.5318   5.7113

          k = 0.2500 0.2555 0.4823 ( 27014 PWs)   bands (ev):

   -28.3400 -28.3393 -28.3380 -28.3376 -11.8837 -11.8830 -11.8703 -11.8668
   -11.8607 -11.8546 -11.8469 -11.8409 -11.8384 -11.8326 -11.8130 -11.8098
    -4.9298  -4.7425  -4.2741  -4.1792  -1.8069  -1.6560  -1.5553  -1.3996
    -1.2946  -1.1905  -1.1010  -0.9525  -0.8330  -0.7233  -0.7102  -0.6419
     4.9401   4.9830   5.2140   5.4737   5.5019   5.7303

          k = 0.2500 0.5109 0.0000 ( 26987 PWs)   bands (ev):

   -28.3403 -28.3388 -28.3383 -28.3375 -11.8784 -11.8774 -11.8752 -11.8630
   -11.8612 -11.8602 -11.8564 -11.8411 -11.8401 -11.8283 -11.8175 -11.8106
    -4.9368  -4.5408  -4.3682  -4.1715  -1.8154  -1.7028  -1.5663  -1.4862
    -1.3416  -1.2072  -1.0549  -1.0037  -0.8582  -0.7743  -0.7695  -0.6972
     4.8294   5.2686   5.3074   5.4647   5.7146   5.8047

          k = 0.2500 0.5109 0.2412 ( 26997 PWs)   bands (ev):

   -28.3401 -28.3389 -28.3382 -28.3375 -11.8867 -11.8780 -11.8719 -11.8698
   -11.8674 -11.8577 -11.8477 -11.8416 -11.8361 -11.8268 -11.8164 -11.8112
    -4.8816  -4.5416  -4.3563  -4.1817  -1.9506  -1.7360  -1.5594  -1.5254
    -1.3839  -1.2580  -1.0908  -0.9163  -0.8526  -0.7620  -0.7143  -0.5917
     4.9233   5.0604   5.4289   5.4927   5.7109   5.8096

          k = 0.2500 0.5109 0.4823 ( 27009 PWs)   bands (ev):

   -28.3398 -28.3393 -28.3380 -28.3377 -11.8911 -11.8866 -11.8731 -11.8727
   -11.8677 -11.8604 -11.8407 -11.8361 -11.8322 -11.8273 -11.8143 -11.8125
    -4.7443  -4.6034  -4.2996  -4.2244  -2.0339  -1.9017  -1.5893  -1.5667
    -1.4559  -1.3181  -1.0278  -0.9275  -0.7841  -0.6996  -0.6094  -0.5332
     5.0207   5.0797   5.3241   5.5388   5.8269   6.0554

          k = 0.2500-0.7664 0.0000 ( 26984 PWs)   bands (ev):

   -28.3395 -28.3395 -28.3379 -28.3379 -11.8770 -11.8770 -11.8730 -11.8730
   -11.8583 -11.8583 -11.8502 -11.8502 -11.8361 -11.8361 -11.8136 -11.8136
    -4.6304  -4.6304  -4.3485  -4.3485  -1.7315  -1.7315  -1.6155  -1.6155
    -1.2813  -1.2813  -1.0167  -1.0167  -0.8858  -0.8858  -0.7429  -0.7429
     5.0571   5.0571   5.6303   5.6303   6.1246   6.1247

          k = 0.2500-0.7664 0.2412 ( 27006 PWs)   bands (ev):

   -28.3395 -28.3395 -28.3379 -28.3379 -11.8845 -11.8845 -11.8736 -11.8736
   -11.8608 -11.8608 -11.8445 -11.8445 -11.8319 -11.8319 -11.8139 -11.8139
    -4.6019  -4.6019  -4.3370  -4.3370  -1.8659  -1.8659  -1.6913  -1.6913
    -1.2162  -1.2162  -1.0662  -1.0662  -0.8121  -0.8121  -0.6575  -0.6575
     5.0624   5.0624   5.5894   5.5894   5.9441   5.9442

          k = 0.2500-0.7664 0.4823 ( 26984 PWs)   bands (ev):

   -28.3395 -28.3395 -28.3379 -28.3379 -11.8930 -11.8930 -11.8746 -11.8746
   -11.8646 -11.8646 -11.8369 -11.8369 -11.8271 -11.8271 -11.8146 -11.8146
    -4.5520  -4.5520  -4.3200  -4.3200  -2.0766  -2.0766  -1.6897  -1.6897
    -1.3464  -1.3464  -0.9688  -0.9688  -0.7224  -0.7224  -0.5674  -0.5674
     5.0840   5.0840   5.5967   5.5967   5.9466   5.9467

          k =-0.5000 0.0000 0.0000 ( 27002 PWs)   bands (ev):

   -28.3400 -28.3400 -28.3375 -28.3375 -11.8795 -11.8795 -11.8665 -11.8665
   -11.8529 -11.8529 -11.8419 -11.8419 -11.8335 -11.8335 -11.8197 -11.8197
    -5.0255  -5.0255  -4.1103  -4.1103  -1.7334  -1.7334  -1.2478  -1.2478
    -1.2104  -1.2104  -1.0076  -1.0076  -0.7738  -0.7738  -0.7037  -0.7037
     4.8183   4.8183   4.9627   4.9627   5.3634   5.3634

          k =-0.5000 0.0000 0.2412 ( 26982 PWs)   bands (ev):

   -28.3398 -28.3398 -28.3377 -28.3377 -11.8781 -11.8781 -11.8647 -11.8647
   -11.8516 -11.8516 -11.8437 -11.8437 -11.8401 -11.8401 -11.8171 -11.8171
    -4.9722  -4.9722  -4.1722  -4.1722  -1.6876  -1.6876  -1.2335  -1.2335
    -1.1781  -1.1781  -1.0331  -1.0331  -0.8191  -0.8191  -0.7541  -0.7541
     4.8627   4.8627   5.1051   5.1051   5.2690   5.2690

          k =-0.5000 0.0000 0.4823 ( 26976 PWs)   bands (ev):

   -28.3394 -28.3394 -28.3382 -28.3382 -11.8744 -11.8744 -11.8607 -11.8607
   -11.8503 -11.8503 -11.8491 -11.8491 -11.8476 -11.8476 -11.8149 -11.8149
    -4.8620  -4.8620  -4.2972  -4.2972  -1.5735  -1.5735  -1.2518  -1.2518
    -1.0970  -1.0970  -1.0576  -1.0576  -0.9207  -0.9207  -0.8528  -0.8528
     4.9846   4.9846   5.3779   5.3780   5.3984   5.3985

          k =-0.5000 0.2555 0.0000 ( 26940 PWs)   bands (ev):

   -28.3398 -28.3398 -28.3377 -28.3377 -11.8762 -11.8762 -11.8685 -11.8685
   -11.8534 -11.8534 -11.8474 -11.8474 -11.8314 -11.8314 -11.8208 -11.8208
    -4.9538  -4.9538  -4.1440  -4.1440  -1.6804  -1.6804  -1.4784  -1.4784
    -1.1333  -1.1333  -1.0187  -1.0187  -0.7720  -0.7720  -0.7450  -0.7450
     4.8100   4.8100   5.1549   5.1549   5.4038   5.4038

          k =-0.5000 0.2555 0.2412 ( 26980 PWs)   bands (ev):

   -28.3396 -28.3396 -28.3378 -28.3378 -11.8786 -11.8786 -11.8636 -11.8636
   -11.8561 -11.8561 -11.8478 -11.8478 -11.8341 -11.8341 -11.8186 -11.8186
    -4.9035  -4.9035  -4.1911  -4.1911  -1.7183  -1.7183  -1.3979  -1.3979
    -1.1821  -1.1821  -1.0029  -1.0029  -0.8770  -0.8770  -0.6784  -0.6784
     4.8830   4.8830   5.1879   5.1879   5.3938   5.3938

          k =-0.5000 0.2555 0.4823 ( 26988 PWs)   bands (ev):

   -28.3393 -28.3393 -28.3382 -28.3382 -11.8794 -11.8794 -11.8629 -11.8629
   -11.8561 -11.8561 -11.8478 -11.8478 -11.8380 -11.8380 -11.8162 -11.8162
    -4.8004  -4.8004  -4.2909  -4.2909  -1.7212  -1.7212  -1.3231  -1.3231
    -1.2334  -1.2334  -1.0972  -1.0972  -0.8257  -0.8257  -0.7033  -0.7033
     5.0631   5.0631   5.1739   5.1739   5.5712   5.5714

          k =-0.5000 0.5109 0.0000 ( 27024 PWs)   bands (ev):

   -28.3393 -28.3393 -28.3381 -28.3381 -11.8715 -11.8715 -11.8674 -11.8674
   -11.8617 -11.8617 -11.8508 -11.8508 -11.8298 -11.8298 -11.8236 -11.8236
    -4.7583  -4.7583  -4.2702  -4.2702  -1.6738  -1.6738  -1.5152  -1.5152
    -1.3187  -1.3187  -0.9341  -0.9341  -0.9262  -0.9262  -0.7518  -0.7518
     4.9483   4.9483   5.4002   5.4002   5.6478   5.6478

          k =-0.5000 0.5109 0.2412 ( 27010 PWs)   bands (ev):

   -28.3392 -28.3392 -28.3382 -28.3382 -11.8800 -11.8800 -11.8687 -11.8687
   -11.8577 -11.8577 -11.8471 -11.8471 -11.8301 -11.8301 -11.8224 -11.8224
    -4.7177  -4.7177  -4.2821  -4.2821  -1.8184  -1.8184  -1.5063  -1.5063
    -1.3009  -1.3009  -1.0015  -1.0015  -0.8486  -0.8486  -0.6774  -0.6774
     4.9612   4.9612   5.3583   5.3583   5.7132   5.7133

          k =-0.5000 0.5109 0.4823 ( 27012 PWs)   bands (ev):

   -28.3390 -28.3390 -28.3384 -28.3384 -11.8854 -11.8854 -11.8767 -11.8767
   -11.8493 -11.8493 -11.8448 -11.8448 -11.8311 -11.8311 -11.8202 -11.8202
    -4.6375  -4.6375  -4.3163  -4.3163  -1.9353  -1.9353  -1.6489  -1.6489
    -1.1783  -1.1783  -1.0740  -1.0740  -0.7535  -0.7535  -0.6190  -0.6190
     5.0697   5.0697   5.2256   5.2256   6.0120   6.0121

          k =-0.5000-0.7664 0.0000 ( 27024 PWs)   bands (ev):

   -28.3387 -28.3387 -28.3387 -28.3387 -11.8696 -11.8696 -11.8696 -11.8696
   -11.8575 -11.8575 -11.8575 -11.8575 -11.8271 -11.8271 -11.8271 -11.8271
    -4.4991  -4.4991  -4.4991  -4.4991  -1.6213  -1.6213  -1.6213  -1.6213
    -1.1911  -1.1911  -1.1911  -1.1911  -0.8174  -0.8174  -0.8174  -0.8174
     5.2117   5.2117   5.2117   5.2117   6.3410   6.3410

          k =-0.5000-0.7664 0.2412 ( 27016 PWs)   bands (ev):

   -28.3387 -28.3387 -28.3387 -28.3387 -11.8775 -11.8775 -11.8775 -11.8775
   -11.8506 -11.8506 -11.8506 -11.8506 -11.8266 -11.8266 -11.8266 -11.8266
    -4.4781  -4.4781  -4.4781  -4.4781  -1.7512  -1.7512  -1.7512  -1.7512
    -1.1392  -1.1392  -1.1392  -1.1392  -0.7580  -0.7580  -0.7580  -0.7580
     5.1861   5.1861   5.1861   5.1861   6.2760   6.2760

          k =-0.5000-0.7664 0.4823 ( 27008 PWs)   bands (ev):

   -28.3387 -28.3387 -28.3387 -28.3387 -11.8851 -11.8851 -11.8851 -11.8851
   -11.8447 -11.8447 -11.8447 -11.8447 -11.8256 -11.8256 -11.8256 -11.8256
    -4.4427  -4.4427  -4.4427  -4.4427  -1.9129  -1.9129  -1.9129  -1.9129
    -1.0910  -1.0910  -1.0910  -1.0910  -0.6773  -0.6773  -0.6773  -0.6773
     5.2042   5.2042   5.2042   5.2042   6.1633   6.1633

     the Fermi energy is     2.5159 ev

!    total energy              =    -629.07358984 Ry
     estimated scf accuracy    <          4.4E-09 Ry
     smearing contrib. (-TS)   =       0.00000000 Ry
     internal energy E=F+TS    =    -629.07358984 Ry

     The total energy is F=E-TS. E is the sum of the following terms:
     one-electron contribution =    -109.49260564 Ry
     hartree contribution      =      71.32433711 Ry
     xc contribution           =     -66.60520271 Ry
     ewald contribution        =    -163.82745164 Ry
     one-center paw contrib.   =    -360.47266696 Ry

     convergence has been achieved in   4 iterations

     Forces acting on atoms (cartesian axes, Ry/au):

     atom    1 type  3   force =     0.00004278   -0.00000000   -0.00018531
     atom    2 type  3   force =    -0.00004278    0.00000000   -0.00018531
     atom    3 type  3   force =    -0.00004278    0.00000000    0.00018531
     atom    4 type  3   force =     0.00004278    0.00000000    0.00018531
     atom    5 type  1   force =    -0.00007576   -0.00000000   -0.00084157
     atom    6 type  1   force =     0.00007576    0.00000000   -0.00084157
     atom    7 type  1   force =     0.00007576    0.00000000    0.00084157
     atom    8 type  1   force =    -0.00007576    0.00000000    0.00084157
     atom    9 type  2   force =     0.00057893   -0.00270403    0.00255881
     atom   10 type  2   force =    -0.00057893   -0.00270403    0.00255881
     atom   11 type  2   force =    -0.00057893    0.00270403    0.00255881
     atom   12 type  2   force =    -0.00057893   -0.00270403   -0.00255881
     atom   13 type  2   force =    -0.00057893    0.00270403   -0.00255881
     atom   14 type  2   force =     0.00057893    0.00270403   -0.00255881
     atom   15 type  2   force =     0.00057893   -0.00270403   -0.00255881
     atom   16 type  2   force =     0.00057893    0.00270403    0.00255881
     atom   17 type  2   force =     0.00322821   -0.00000000    0.00144608
     atom   18 type  2   force =    -0.00322821    0.00000000    0.00144608
     atom   19 type  2   force =    -0.00322821   -0.00000000   -0.00144608
     atom   20 type  2   force =     0.00322821    0.00000000   -0.00144608
     atom   21 type  2   force =     0.00292261   -0.00000000   -0.00246119
     atom   22 type  2   force =    -0.00292261    0.00000000   -0.00246119
     atom   23 type  2   force =    -0.00292261   -0.00000000    0.00246119
     atom   24 type  2   force =     0.00292261    0.00000000    0.00246119

     Total force =     0.015000     Total SCF correction =     0.000034


     Computing stress (Cartesian axis) and pressure

          total   stress  (Ry/bohr**3)                   (kbar)     P=        8.28
   0.00005692   0.00000000   0.00000000            8.37        0.00        0.00
   0.00000000   0.00005474   0.00000000            0.00        8.05        0.00
   0.00000000   0.00000000   0.00005715            0.00        0.00        8.41

     Energy error            =      3.5E-04 Ry
     Gradient error          =      3.2E-03 Ry/Bohr

     number of scf cycles    =   2
     number of bfgs steps    =   1

     energy             old  =    -629.0732365414 Ry
     energy             new  =    -629.0735898367 Ry

     CASE: energy            _new < energy            _old

     new trust radius        =       0.0057446762 bohr
     new conv_thr            =       0.0000000003 Ry


ATOMIC_POSITIONS (crystal)
K             0.1764643611        0.2500000000        0.1653403425
K             0.3235356389        0.7500000000        0.6653403425
K             0.8235356389        0.7500000000        0.8346596575
K             0.6764643611        0.2500000000        0.3346596575
Al            0.0687653747        0.2500000000        0.6792401509
Al            0.4312346253        0.7500000000        0.1792401509
Al            0.9312346253        0.7500000000        0.3207598491
Al            0.5687653747        0.2500000000        0.8207598491
H             0.0779455323        0.0199041745        0.8113310318
H             0.4220544677        0.5199041745        0.3113310318
H             0.4220544677        0.9800958255        0.3113310318
H             0.9220544677        0.5199041745        0.1886689682
H             0.9220544677        0.9800958255        0.1886689682
H             0.5779455323        0.4800958255        0.6886689682
H             0.5779455323        0.0199041745        0.6886689682
H             0.0779455323        0.4800958255        0.8113310318
H             0.0905549063        0.7500000000        0.4342741198
H             0.4094450937        0.2500000000        0.9342741198
H             0.9094450937        0.2500000000        0.5657258802
H             0.5905549063        0.7500000000        0.0657258802
H             0.2164363619        0.2500000000        0.5438346510
H             0.2835636381        0.7500000000        0.0438346510
H             0.7835636381        0.7500000000        0.4561653490
H             0.7164363619        0.2500000000        0.9561653490



     Writing config-only to output data dir ./kalh4.save/
     NEW-OLD atomic charge density approx. for the potential

     Check: negative core charge=   -0.000001

     total cpu time spent up to now is       14.6 secs

     Self-consistent Calculation

     iteration #  1     ecut=    75.00 Ry     beta= 0.70
     Davidson diagonalization with overlap
     ethr =  1.00E-06,  avg # of iterations =  2.0

     Threshold (ethr) on eigenvalues was too large:
     Diagonalizing with lowered threshold

     Davidson diagonalization with overlap
     ethr =  4.89E-08,  avg # of iterations =  3.9

     total cpu time spent up to now is       16.1 secs

     total energy              =    -629.07385486 Ry
     estimated scf accuracy    <       0.00004505 Ry

     iteration #  2     ecut=    75.00 Ry     beta= 0.70
     Davidson diagonalization with overlap
     ethr =  7.04E-08,  avg # of iterations =  2.0

     total cpu time spent up to now is       16.9 secs

     total energy              =    -629.07386466 Ry
     estimated scf accuracy    <       0.00000283 Ry

     iteration #  3     ecut=    75.00 Ry     beta= 0.70
     Davidson diagonalization with overlap
     ethr =  4.42E-09,  avg # of iterations =  2.0

     total cpu time spent up to now is       17.6 secs

     total energy              =    -629.07386510 Ry
     estimated scf accuracy    <       0.00000010 Ry

     iteration #  4     ecut=    75.00 Ry     beta= 0.70
     Davidson diagonalization with overlap
     ethr =  1.57E-10,  avg # of iterations =  2.5

     total cpu time spent up to now is       18.4 secs

     total energy              =    -629.07386512 Ry
     estimated scf accuracy    <          5.2E-09 Ry

     iteration #  5     ecut=    75.00 Ry     beta= 0.70
     Davidson diagonalization with overlap
     ethr =  8.20E-12,  avg # of iterations =  3.9

     total cpu time spent up to now is       19.2 secs

     total energy              =    -629.07386512 Ry
     estimated scf accuracy    <          4.3E-10 Ry

     iteration #  6     ecut=    75.00 Ry     beta= 0.70
     Davidson diagonalization with overlap
     ethr =  6.76E-13,  avg # of iterations =  3.1

     total cpu time spent up to now is       20.0 secs

     End of self-consistent calculation

          k = 0.0000 0.0000 0.0000 ( 26965 PWs)   bands (ev):

   -28.3370 -28.3337 -28.3336 -28.3324 -11.8853 -11.8735 -11.8695 -11.8671
   -11.8666 -11.8480 -11.8397 -11.8385 -11.8249 -11.8159 -11.8099 -11.7967
    -5.3333  -4.5705  -4.2401  -4.0128  -1.8557  -1.8239  -1.2421  -1.2404
    -1.2165  -1.1993  -1.1925  -0.9084  -0.8100  -0.7479  -0.7218  -0.4882
     4.5634   5.0909   5.2513   5.3739   5.4239   5.4941

          k = 0.0000 0.0000 0.2412 ( 26960 PWs)   bands (ev):

   -28.3367 -28.3341 -28.3335 -28.3325 -11.8882 -11.8717 -11.8707 -11.8659
   -11.8581 -11.8466 -11.8450 -11.8373 -11.8294 -11.8194 -11.8080 -11.7975
    -5.2585  -4.6176  -4.2459  -4.0306  -1.8864  -1.7409  -1.4707  -1.1856
    -1.1590  -1.1273  -1.0575  -0.8741  -0.8627  -0.8500  -0.7726  -0.5267
     4.7346   4.9096   5.1089   5.4149   5.4834   5.5296

          k = 0.0000 0.0000 0.4823 ( 26960 PWs)   bands (ev):

   -28.3359 -28.3350 -28.3331 -28.3327 -11.8878 -11.8810 -11.8634 -11.8558
   -11.8538 -11.8432 -11.8431 -11.8417 -11.8393 -11.8292 -11.8037 -11.7998
    -5.0576  -4.8036  -4.1912  -4.0949  -1.8633  -1.7055  -1.5056  -1.1907
    -1.1060  -1.0795  -0.9784  -0.9617  -0.9342  -0.8890  -0.7719  -0.6340
     4.7512   4.8291   5.1468   5.4842   5.7562   5.7847

          k = 0.0000 0.2555 0.0000 ( 26958 PWs)   bands (ev):

   -28.3367 -28.3339 -28.3335 -28.3325 -11.8843 -11.8754 -11.8689 -11.8668
   -11.8625 -11.8472 -11.8458 -11.8410 -11.8269 -11.8179 -11.8089 -11.7974
    -5.2433  -4.5309  -4.2673  -4.0396  -1.8784  -1.7601  -1.5293  -1.3678
    -1.1819  -1.1416  -1.1205  -0.8955  -0.8173  -0.7736  -0.7272  -0.5410
     4.7651   4.9524   5.2191   5.3152   5.6432   5.7366

          k = 0.0000 0.2555 0.2412 ( 27007 PWs)   bands (ev):

   -28.3365 -28.3342 -28.3334 -28.3326 -11.8854 -11.8776 -11.8723 -11.8604
   -11.8585 -11.8538 -11.8428 -11.8402 -11.8286 -11.8201 -11.8072 -11.7981
    -5.1719  -4.5762  -4.2602  -4.0540  -1.8711  -1.8081  -1.4750  -1.3494
    -1.2963  -1.1482  -1.1000  -0.9646  -0.8564  -0.7078  -0.6422  -0.5749
     4.8628   4.9726   5.0765   5.4115   5.6468   5.6864

          k = 0.0000 0.2555 0.4823 ( 27013 PWs)   bands (ev):

   -28.3358 -28.3350 -28.3331 -28.3328 -11.8846 -11.8794 -11.8753 -11.8662
   -11.8534 -11.8460 -11.8453 -11.8348 -11.8340 -11.8258 -11.8037 -11.8003
    -4.9820  -4.7466  -4.1974  -4.1090  -1.8099  -1.7359  -1.6554  -1.5020
    -1.2519  -1.1788  -1.0787  -0.9162  -0.8229  -0.7180  -0.6190  -0.6017
     4.8829   4.9050   5.2235   5.6176   5.7073   5.9395

          k = 0.0000 0.5109 0.0000 ( 27000 PWs)   bands (ev):

   -28.3361 -28.3345 -28.3333 -28.3327 -11.8820 -11.8762 -11.8736 -11.8604
   -11.8591 -11.8537 -11.8465 -11.8427 -11.8333 -11.8243 -11.8061 -11.7994
    -4.9977  -4.4208  -4.3987  -4.1275  -1.8934  -1.7358  -1.6101  -1.5739
    -1.2811  -1.0807  -1.0154  -1.0033  -0.9865  -0.7772  -0.6761  -0.6519
     4.8670   5.3069   5.3690   5.4363   5.9051   6.0165

          k = 0.0000 0.5109 0.2412 ( 26994 PWs)   bands (ev):

   -28.3360 -28.3346 -28.3332 -28.3327 -11.8832 -11.8799 -11.8748 -11.8688
   -11.8600 -11.8502 -11.8465 -11.8353 -11.8330 -11.8224 -11.8053 -11.8000
    -4.9380  -4.4903  -4.3285  -4.1331  -1.9590  -1.8541  -1.5875  -1.5417
    -1.3062  -1.2778  -1.1333  -0.8652  -0.8374  -0.7737  -0.6749  -0.5358
     4.9944   5.2770   5.3166   5.3979   5.7986   5.8255

          k = 0.0000 0.5109 0.4823 ( 27005 PWs)   bands (ev):

   -28.3356 -28.3351 -28.3330 -28.3329 -11.8872 -11.8820 -11.8770 -11.8759
   -11.8620 -11.8548 -11.8379 -11.8319 -11.8268 -11.8224 -11.8034 -11.8015
    -4.7859  -4.6138  -4.2377  -4.1652  -2.0505  -1.9125  -1.6674  -1.5658
    -1.4271  -1.3934  -1.0197  -0.8981  -0.8005  -0.7005  -0.5428  -0.4687
     5.1036   5.1436   5.4502   5.5634   5.8147   5.8727

          k = 0.0000-0.7664 0.0000 ( 27022 PWs)   bands (ev):

   -28.3353 -28.3353 -28.3330 -28.3330 -11.8787 -11.8787 -11.8710 -11.8710
   -11.8532 -11.8532 -11.8431 -11.8431 -11.8338 -11.8338 -11.8026 -11.8026
    -4.6736  -4.6736  -4.2695  -4.2695  -1.8061  -1.8061  -1.6292  -1.6292
    -1.3147  -1.3147  -0.8866  -0.8866  -0.8764  -0.8764  -0.7607  -0.7607
     5.1136   5.1136   5.7630   5.7630   5.9110   5.9110

          k = 0.0000-0.7664 0.2412 ( 27018 PWs)   bands (ev):

   -28.3353 -28.3353 -28.3330 -28.3330 -11.8811 -11.8811 -11.8765 -11.8765
   -11.8539 -11.8539 -11.8414 -11.8414 -11.8278 -11.8278 -11.8026 -11.8026
    -4.6422  -4.6422  -4.2631  -4.2631  -1.8958  -1.8958  -1.7444  -1.7444
    -1.1641  -1.1641  -1.0730  -1.0730  -0.8275  -0.8275  -0.6029  -0.6029
     5.2387   5.2387   5.4553   5.4553   5.9576   5.9576

          k = 0.0000-0.7664 0.4823 ( 26988 PWs)   bands (ev):

   -28.3353 -28.3353 -28.3329 -28.3329 -11.8902 -11.8902 -11.8730 -11.8730
   -11.8627 -11.8627 -11.8337 -11.8337 -11.8226 -11.8226 -11.8027 -11.8027
    -4.5865  -4.5865  -4.2555  -4.2555  -2.1225  -2.1225  -1.6176  -1.6176
    -1.4164  -1.4164  -0.9897  -0.9897  -0.7278  -0.7278  -0.4915  -0.4915
     5.1850   5.1850   5.7355   5.7355   5.8564   5.8564

          k = 0.2500 0.0000 0.0000 ( 26958 PWs)   bands (ev):

   -28.3365 -28.3342 -28.3335 -28.3325 -11.8765 -11.8745 -11.8703 -11.8697
   -11.8530 -11.8506 -11.8390 -11.8374 -11.8272 -11.8174 -11.8159 -11.8045
    -5.2490  -4.7289  -4.1989  -4.0219  -1.8785  -1.6000  -1.4828  -1.2131
    -1.1961  -1.1424  -1.0539  -0.9687  -0.7973  -0.7476  -0.7349  -0.5663
     4.6693   4.9114   4.9919   5.3106   5.3888   5.5210

          k = 0.2500 0.0000 0.2412 ( 26965 PWs)   bands (ev):

   -28.3363 -28.3342 -28.3337 -28.3327 -11.8799 -11.8752 -11.8678 -11.8595
   -11.8536 -11.8520 -11.8422 -11.8376 -11.8308 -11.8235 -11.8127 -11.8036
    -5.1787  -4.7200  -4.2491  -4.0584  -1.8394  -1.6183  -1.4487  -1.1817
    -1.1743  -1.1629  -1.0115  -0.9537  -0.8388  -0.8209  -0.7841  -0.6088
     4.8348   4.8444   5.0569   5.2823   5.3914   5.3971

          k = 0.2500 0.0000 0.4823 ( 27010 PWs)   bands (ev):

   -28.3356 -28.3347 -28.3335 -28.3330 -11.8804 -11.8762 -11.8613 -11.8537
   -11.8527 -11.8461 -11.8441 -11.8414 -11.8405 -11.8335 -11.8078 -11.8043
    -4.9951  -4.7922  -4.2693  -4.1637  -1.7494  -1.6032  -1.4420  -1.1922
    -1.1014  -1.0825  -1.0285  -0.9773  -0.9287  -0.8965  -0.8213  -0.7194
     4.8220   4.9562   5.2244   5.4302   5.4820   5.5703

          k = 0.2500 0.2555 0.0000 ( 26956 PWs)   bands (ev):

   -28.3363 -28.3341 -28.3337 -28.3326 -11.8745 -11.8740 -11.8723 -11.8657
   -11.8535 -11.8527 -11.8449 -11.8376 -11.8293 -11.8179 -11.8162 -11.8047
    -5.1636  -4.6767  -4.2284  -4.0544  -1.8465  -1.6186  -1.5072  -1.4090
    -1.2823  -1.1660  -1.0136  -0.8511  -0.8151  -0.7923  -0.7547  -0.6202
     4.8173   4.8366   5.1819   5.1888   5.6126   5.6561

          k = 0.2500 0.2555 0.2412 ( 26994 PWs)   bands (ev):

   -28.3361 -28.3341 -28.3337 -28.3327 -11.8789 -11.8769 -11.8658 -11.8630
   -11.8543 -11.8533 -11.8451 -11.8392 -11.8300 -11.8217 -11.8129 -11.8045
    -5.0967  -4.6686  -4.2623  -4.0834  -1.8635  -1.6309  -1.5091  -1.3387
    -1.3215  -1.1499  -1.0373  -0.9686  -0.8631  -0.7445  -0.6988  -0.6090
     4.8857   4.9163   5.1002   5.2346   5.5286   5.7087

          k = 0.2500 0.2555 0.4823 ( 27014 PWs)   bands (ev):

   -28.3355 -28.3347 -28.3335 -28.3330 -11.8795 -11.8788 -11.8661 -11.8625
   -11.8564 -11.8503 -11.8426 -11.8366 -11.8342 -11.8282 -11.8085 -11.8054
    -4.9237  -4.7356  -4.2656  -4.1704  -1.8070  -1.6556  -1.5541  -1.3974
    -1.2905  -1.1869  -1.0974  -0.9489  -0.8290  -0.7191  -0.7057  -0.6377
     4.9355   4.9779   5.2081   5.4684   5.4985   5.7274

          k = 0.2500 0.5109 0.0000 ( 26987 PWs)   bands (ev):

   -28.3357 -28.3342 -28.3337 -28.3329 -11.8742 -11.8731 -11.8710 -11.8588
   -11.8569 -11.8560 -11.8521 -11.8368 -11.8359 -11.8238 -11.8130 -11.8062
    -4.9308  -4.5332  -4.3597  -4.1623  -1.8156  -1.6999  -1.5656  -1.4844
    -1.3388  -1.2044  -1.0510  -1.0004  -0.8569  -0.7686  -0.7661  -0.6935
     4.8235   5.2632   5.3024   5.4626   5.7106   5.8025

          k = 0.2500 0.5109 0.2412 ( 26997 PWs)   bands (ev):

   -28.3356 -28.3344 -28.3336 -28.3330 -11.8825 -11.8738 -11.8676 -11.8656
   -11.8631 -11.8535 -11.8435 -11.8373 -11.8318 -11.8223 -11.8120 -11.8067
    -4.8753  -4.5340  -4.3479  -4.1726  -1.9502  -1.7349  -1.5576  -1.5233
    -1.3816  -1.2557  -1.0886  -0.9130  -0.8484  -0.7574  -0.7110  -0.5872
     4.9178   5.0550   5.4234   5.4899   5.7077   5.8075

          k = 0.2500 0.5109 0.4823 ( 27009 PWs)   bands (ev):

   -28.3352 -28.3348 -28.3334 -28.3332 -11.8869 -11.8824 -11.8688 -11.8685
   -11.8635 -11.8561 -11.8365 -11.8318 -11.8278 -11.8229 -11.8098 -11.8080
    -4.7375  -4.5959  -4.2910  -4.2155  -2.0334  -1.9006  -1.5872  -1.5645
    -1.4548  -1.3171  -1.0246  -0.9244  -0.7796  -0.6949  -0.6052  -0.5286
     5.0154   5.0758   5.3182   5.5346   5.8239   6.0528

          k = 0.2500-0.7664 0.0000 ( 26984 PWs)   bands (ev):

   -28.3349 -28.3349 -28.3333 -28.3333 -11.8728 -11.8728 -11.8688 -11.8688
   -11.8541 -11.8541 -11.8460 -11.8460 -11.8316 -11.8316 -11.8092 -11.8092
    -4.6232  -4.6232  -4.3400  -4.3400  -1.7307  -1.7307  -1.6116  -1.6116
    -1.2800  -1.2800  -1.0160  -1.0160  -0.8806  -0.8806  -0.7392  -0.7392
     5.0515   5.0515   5.6270   5.6270   6.1219   6.1219

          k = 0.2500-0.7664 0.2412 ( 27006 PWs)   bands (ev):

   -28.3349 -28.3349 -28.3333 -28.3333 -11.8803 -11.8803 -11.8694 -11.8694
   -11.8566 -11.8566 -11.8402 -11.8402 -11.8275 -11.8275 -11.8095 -11.8095
    -4.5946  -4.5946  -4.3286  -4.3286  -1.8642  -1.8642  -1.6899  -1.6899
    -1.2149  -1.2149  -1.0634  -1.0634  -0.8079  -0.8079  -0.6535  -0.6535
     5.0573   5.0573   5.5853   5.5853   5.9422   5.9422

          k = 0.2500-0.7664 0.4823 ( 26984 PWs)   bands (ev):

   -28.3349 -28.3349 -28.3333 -28.3333 -11.8888 -11.8888 -11.8704 -11.8704
   -11.8604 -11.8604 -11.8327 -11.8327 -11.8227 -11.8227 -11.8101 -11.8101
    -4.5443  -4.5443  -4.3115  -4.3115  -2.0755  -2.0755  -1.6882  -1.6882
    -1.3457  -1.3457  -0.9657  -0.9657  -0.7173  -0.7173  -0.5635  -0.5635
     5.0801   5.0801   5.5917   5.5917   5.9422   5.9423

          k =-0.5000 0.0000 0.0000 ( 27002 PWs)   bands (ev):

   -28.3354 -28.3354 -28.3330 -28.3330 -11.8753 -11.8753 -11.8623 -11.8623
   -11.8487 -11.8487 -11.8376 -11.8376 -11.8293 -11.8293 -11.8152 -11.8152
    -5.0197  -5.0197  -4.1007  -4.1007  -1.7343  -1.7343  -1.2473  -1.2473
    -1.2047  -1.2047  -1.0054  -1.0054  -0.7662  -0.7662  -0.7004  -0.7004
     4.8135   4.8135   4.9558   4.9558   5.3607   5.3607

          k =-0.5000 0.0000 0.2412 ( 26982 PWs)   bands (ev):

   -28.3352 -28.3352 -28.3332 -28.3332 -11.8739 -11.8739 -11.8604 -11.8604
   -11.8473 -11.8473 -11.8394 -11.8394 -11.8358 -11.8358 -11.8126 -11.8126
    -4.9662  -4.9662  -4.1631  -4.1631  -1.6881  -1.6881  -1.2328  -1.2328
    -1.1723  -1.1723  -1.0310  -1.0310  -0.8116  -0.8116  -0.7511  -0.7511
     4.8582   4.8582   5.0982   5.0982   5.2652   5.2652

          k =-0.5000 0.0000 0.4823 ( 26976 PWs)   bands (ev):

   -28.3348 -28.3348 -28.3336 -28.3336 -11.8703 -11.8703 -11.8565 -11.8565
   -11.8458 -11.8458 -11.8450 -11.8450 -11.8433 -11.8433 -11.8104 -11.8104
    -4.8556  -4.8556  -4.2890  -4.2890  -1.5734  -1.5734  -1.2500  -1.2500
    -1.0912  -1.0912  -1.0561  -1.0561  -0.9135  -0.9135  -0.8505  -0.8505
     4.9808   4.9808   5.3738   5.3738   5.3916   5.3916

          k =-0.5000 0.2555 0.0000 ( 26940 PWs)   bands (ev):

   -28.3352 -28.3352 -28.3331 -28.3331 -11.8721 -11.8721 -11.8642 -11.8642
   -11.8491 -11.8491 -11.8432 -11.8432 -11.8271 -11.8271 -11.8163 -11.8163
    -4.9478  -4.9478  -4.1345  -4.1345  -1.6812  -1.6812  -1.4761  -1.4761
    -1.1298  -1.1298  -1.0149  -1.0149  -0.7672  -0.7672  -0.7410  -0.7410
     4.8045   4.8045   5.1490   5.1490   5.4014   5.4015

          k =-0.5000 0.2555 0.2412 ( 26980 PWs)   bands (ev):

   -28.3351 -28.3351 -28.3333 -28.3333 -11.8745 -11.8745 -11.8593 -11.8593
   -11.8518 -11.8518 -11.8436 -11.8436 -11.8298 -11.8298 -11.8140 -11.8140
    -4.8973  -4.8973  -4.1820  -4.1820  -1.7185  -1.7185  -1.3959  -1.3959
    -1.1784  -1.1784  -0.9989  -0.9989  -0.8738  -0.8738  -0.6733  -0.6733
     4.8779   4.8779   5.1818   5.1818   5.3910   5.3910

          k =-0.5000 0.2555 0.4823 ( 26988 PWs)   bands (ev):

   -28.3347 -28.3347 -28.3337 -28.3337 -11.8752 -11.8752 -11.8586 -11.8586
   -11.8519 -11.8519 -11.8436 -11.8436 -11.8337 -11.8337 -11.8118 -11.8118
    -4.7938  -4.7938  -4.2826  -4.2826  -1.7208  -1.7208  -1.3193  -1.3193
    -1.2314  -1.2314  -1.0947  -1.0947  -0.8218  -0.8218  -0.6979  -0.6979
     5.0587   5.0587   5.1679   5.1679   5.5679   5.5680

          k =-0.5000 0.5109 0.0000 ( 27024 PWs)   bands (ev):

   -28.3347 -28.3347 -28.3335 -28.3335 -11.8673 -11.8673 -11.8632 -11.8632
   -11.8574 -11.8574 -11.8467 -11.8467 -11.8255 -11.8255 -11.8191 -11.8191
    -4.7516  -4.7516  -4.2614  -4.2614  -1.6721  -1.6721  -1.5148  -1.5148
    -1.3150  -1.3150  -0.9323  -0.9323  -0.9225  -0.9225  -0.7469  -0.7469
     4.9427   4.9427   5.3959   5.3959   5.6445   5.6445

          k =-0.5000 0.5109 0.2412 ( 27010 PWs)   bands (ev):

   -28.3346 -28.3346 -28.3336 -28.3336 -11.8757 -11.8757 -11.8644 -11.8644
   -11.8535 -11.8535 -11.8429 -11.8429 -11.8257 -11.8257 -11.8179 -11.8179
    -4.7109  -4.7109  -4.2734  -4.2734  -1.8177  -1.8177  -1.5037  -1.5037
    -1.2989  -1.2989  -0.9993  -0.9993  -0.8448  -0.8448  -0.6724  -0.6724
     4.9558   4.9558   5.3533   5.3533   5.7106   5.7106

          k =-0.5000 0.5109 0.4823 ( 27012 PWs)   bands (ev):

   -28.3344 -28.3344 -28.3338 -28.3338 -11.8812 -11.8812 -11.8725 -11.8725
   -11.8451 -11.8451 -11.8406 -11.8406 -11.8267 -11.8267 -11.8157 -11.8157
    -4.6303  -4.6303  -4.3078  -4.3078  -1.9350  -1.9350  -1.6463  -1.6463
    -1.1764  -1.1764  -1.0720  -1.0720  -0.7491  -0.7491  -0.6137  -0.6137
     5.0643   5.0643   5.2208   5.2208   6.0084   6.0085

          k =-0.5000-0.7664 0.0000 ( 27024 PWs)   bands (ev):

   -28.3341 -28.3341 -28.3341 -28.3341 -11.8653 -11.8653 -11.8653 -11.8653
   -11.8533 -11.8533 -11.8533 -11.8533 -11.8227 -11.8227 -11.8227 -11.8227
    -4.4914  -4.4914  -4.4914  -4.4914  -1.6188  -1.6188  -1.6188  -1.6188
    -1.1900  -1.1900  -1.1900  -1.1900  -0.8132  -0.8132  -0.8132  -0.8132
     5.2065   5.2065   5.2065   5.2065   6.3391   6.3391

          k =-0.5000-0.7664 0.2412 ( 27016 PWs)   bands (ev):

   -28.3341 -28.3341 -28.3341 -28.3341 -11.8733 -11.8733 -11.8733 -11.8733
   -11.8464 -11.8464 -11.8464 -11.8464 -11.8222 -11.8222 -11.8222 -11.8222
    -4.4703  -4.4703  -4.4703  -4.4703  -1.7494  -1.7494  -1.7494  -1.7494
    -1.1376  -1.1376  -1.1376  -1.1376  -0.7536  -0.7536  -0.7536  -0.7536
     5.1810   5.1810   5.1810   5.1810   6.2736   6.2736

          k =-0.5000-0.7664 0.4823 ( 27008 PWs)   bands (ev):

   -28.3341 -28.3341 -28.3341 -28.3341 -11.8809 -11.8809 -11.8809 -11.8809
   -11.8405 -11.8405 -11.8405 -11.8405 -11.8211 -11.8211 -11.8211 -11.8211
    -4.4347  -4.4347  -4.4347  -4.4347  -1.9119  -1.9119  -1.9119  -1.9119
    -1.0891  -1.0891  -1.0891  -1.0891  -0.6725  -0.6725  -0.6725  -0.6725
     5.1995   5.1995   5.1995   5.1995   6.1586   6.1586

     the Fermi energy is     2.5148 ev

!    total energy              =    -629.07386512 Ry
     estimated scf accuracy    <          4.1E-11 Ry
     smearing contrib. (-TS)   =       0.00000000 Ry
     internal energy E=F+TS    =    -629.07386512 Ry

     The total energy is F=E-TS. E is the sum of the following terms:
     one-electron contribution =    -109.47043868 Ry
     hartree contribution      =      71.31371723 Ry
     xc contribution           =     -66.59200948 Ry
     ewald contribution        =    -163.85509180 Ry
     one-center paw contrib.   =    -360.47004240 Ry

     convergence has been achieved in   6 iterations

     Forces acting on atoms (cartesian axes, Ry/au):

     atom    1 type  3   force =    -0.00000773   -0.00000000   -0.00018095
     atom    2 type  3   force =     0.00000773    0.00000000   -0.00018095
     atom    3 type  3   force =     0.00000773   -0.00000000    0.00018095
     atom    4 type  3   force =    -0.00000773    0.00000000    0.00018095
     atom    5 type  1   force =     0.00011994    0.00000000   -0.00029565
     atom    6 type  1   force =    -0.00011994    0.00000000   -0.00029565
     atom    7 type  1   force =    -0.00011994    0.00000000    0.00029565
     atom    8 type  1   force =     0.00011994    0.00000000    0.00029565
     atom    9 type  2   force =     0.00050043   -0.00151785    0.00162673
     atom   10 type  2   force =    -0.00050043   -0.00151785    0.00162673
     atom   11 type  2   force =    -0.00050043    0.00151785    0.00162673
     atom   12 type  2   force =    -0.00050043   -0.00151785   -0.00162673
     atom   13 type  2   force =    -0.00050043    0.00151785   -0.00162673
     atom   14 type  2   force =     0.00050043    0.00151785   -0.00162673
     atom   15 type  2   force =     0.00050043   -0.00151785   -0.00162673
     atom   16 type  2   force =     0.00050043    0.00151785    0.00162673
     atom   17 type  2   force =     0.00217458    0.00000000    0.00084435
     atom   18 type  2   force =    -0.00217458   -0.00000000    0.00084435
     atom   19 type  2   force =    -0.00217458    0.00000000   -0.00084435
     atom   20 type  2   force =     0.00217458   -0.00000000   -0.00084435
     atom   21 type  2   force =     0.00189398    0.00000000   -0.00168669
     atom   22 type  2   force =    -0.00189398   -0.00000000   -0.00168669
     atom   23 type  2   force =    -0.00189398   -0.00000000    0.00168669
     atom   24 type  2   force =     0.00189398    0.00000000    0.00168669

     Total force =     0.009468     Total SCF correction =     0.000009


     Computing stress (Cartesian axis) and pressure

          total   stress  (Ry/bohr**3)                   (kbar)     P=        7.10
   0.00004969   0.00000000   0.00000000            7.31        0.00        0.00
   0.00000000   0.00004606   0.00000000            0.00        6.78        0.00
   0.00000000   0.00000000   0.00004912            0.00        0.00        7.23

     Energy error            =      2.8E-04 Ry
     Gradient error          =      2.2E-03 Ry/Bohr

     number of scf cycles    =   3
     number of bfgs steps    =   2

     energy             old  =    -629.0735898367 Ry
     energy             new  =    -629.0738651242 Ry

     CASE: energy            _new < energy            _old

     new trust radius        =       0.0086170143 bohr
     new conv_thr            =       0.0000000002 Ry


ATOMIC_POSITIONS (crystal)
K             0.1764652305        0.2500000000        0.1653006012
K             0.3235347695        0.7500000000        0.6653006012
K             0.8235347695        0.7500000000        0.8346993988
K             0.6764652305        0.2500000000        0.3346993988
Al            0.0687777401        0.2500000000        0.6791438978
Al            0.4312222599        0.7500000000        0.1791438978
Al            0.9312222599        0.7500000000        0.3208561022
Al            0.5687777401        0.2500000000        0.8208561022
H             0.0780400501        0.0193966920        0.8117397216
H             0.4219599499        0.5193966920        0.3117397216
H             0.4219599499        0.9806033080        0.3117397216
H             0.9219599499        0.5193966920        0.1882602784
H             0.9219599499        0.9806033080        0.1882602784
H             0.5780400501        0.4806033080        0.6882602784
H             0.5780400501        0.0193966920        0.6882602784
H             0.0780400501        0.4806033080        0.8117397216
H             0.0909984132        0.7500000000        0.4344924899
H             0.4090015868        0.2500000000        0.9344924899
H             0.9090015868        0.2500000000        0.5655075101
H             0.5909984132        0.7500000000        0.0655075101
H             0.2168280136        0.2500000000        0.5434220627
H             0.2831719864        0.7500000000        0.0434220627
H             0.7831719864        0.7500000000        0.4565779373
H             0.7168280136        0.2500000000        0.9565779373



     Writing config-only to output data dir ./kalh4.save/
     NEW-OLD atomic charge density approx. for the potential

     Check: negative core charge=   -0.000001

     total cpu time spent up to now is       21.4 secs

     Self-consistent Calculation

     iteration #  1     ecut=    75.00 Ry     beta= 0.70
     Davidson diagonalization with overlap
     ethr =  1.00E-06,  avg # of iterations =  3.0

     total cpu time spent up to now is       22.2 secs

     total energy              =    -629.07402491 Ry
     estimated scf accuracy    <       0.00009125 Ry

     iteration #  2     ecut=    75.00 Ry     beta= 0.70
     Davidson diagonalization with overlap
     ethr =  1.43E-07,  avg # of iterations =  2.0

     total cpu time spent up to now is       22.9 secs

     total energy              =    -629.07404568 Ry
     estimated scf accuracy    <       0.00000498 Ry

     iteration #  3     ecut=    75.00 Ry     beta= 0.70
[...]
    -4.9872  -4.4059  -4.3842  -4.1117  -1.8932  -1.7313  -1.6087  -1.5731
    -1.2723  -1.0757  -1.0132  -0.9955  -0.9828  -0.7669  -0.6702  -0.6455
     4.8564   5.2991   5.3625   5.4321   5.9014   6.0108

          k = 0.0000 0.5109 0.2412 ( 26994 PWs)   bands (ev):

   -28.3284 -28.3271 -28.3256 -28.3251 -11.8761 -11.8730 -11.8678 -11.8618
   -11.8530 -11.8432 -11.8394 -11.8281 -11.8259 -11.8150 -11.7980 -11.7927
    -4.9271  -4.4759  -4.3135  -4.1173  -1.9575  -1.8538  -1.5849  -1.5367
    -1.3042  -1.2722  -1.1287  -0.8593  -0.8299  -0.7650  -0.6695  -0.5279
     4.9838   5.2683   5.3091   5.3951   5.7926   5.8235

          k = 0.0000 0.5109 0.4823 ( 27005 PWs)   bands (ev):

   -28.3280 -28.3275 -28.3255 -28.3253 -11.8802 -11.8749 -11.8701 -11.8690
   -11.8550 -11.8477 -11.8308 -11.8247 -11.8195 -11.8150 -11.7961 -11.7942
    -4.7740  -4.6005  -4.2223  -4.1494  -2.0491  -1.9101  -1.6670  -1.5639
    -1.4219  -1.3903  -1.0139  -0.8926  -0.7931  -0.6917  -0.5356  -0.4606
     5.0960   5.1365   5.4402   5.5580   5.8123   5.8643

          k = 0.0000-0.7664 0.0000 ( 27022 PWs)   bands (ev):

   -28.3277 -28.3277 -28.3254 -28.3254 -11.8717 -11.8717 -11.8639 -11.8639
   -11.8462 -11.8462 -11.8360 -11.8360 -11.8265 -11.8265 -11.7953 -11.7953
    -4.6613  -4.6613  -4.2539  -4.2539  -1.8053  -1.8053  -1.6228  -1.6228
    -1.3134  -1.3134  -0.8768  -0.8768  -0.8745  -0.8745  -0.7535  -0.7535
     5.1042   5.1042   5.7612   5.7612   5.9043   5.9043

          k = 0.0000-0.7664 0.2412 ( 27018 PWs)   bands (ev):

   -28.3277 -28.3277 -28.3254 -28.3254 -11.8740 -11.8740 -11.8696 -11.8696
   -11.8469 -11.8469 -11.8343 -11.8343 -11.8204 -11.8204 -11.7953 -11.7953
    -4.6296  -4.6296  -4.2475  -4.2475  -1.8926  -1.8926  -1.7433  -1.7433
    -1.1604  -1.1604  -1.0676  -1.0676  -0.8209  -0.8209  -0.5955  -0.5955
     5.2290   5.2290   5.4526   5.4526   5.9503   5.9503

          k = 0.0000-0.7664 0.4823 ( 26988 PWs)   bands (ev):

   -28.3277 -28.3277 -28.3254 -28.3254 -11.8831 -11.8831 -11.8661 -11.8661
   -11.8557 -11.8557 -11.8265 -11.8265 -11.8152 -11.8152 -11.7954 -11.7954
    -4.5732  -4.5732  -4.2400  -4.2400  -2.1208  -2.1208  -1.6157  -1.6157
    -1.4137  -1.4137  -0.9848  -0.9848  -0.7190  -0.7190  -0.4843  -0.4843
     5.1801   5.1801   5.7277   5.7277   5.8474   5.8474

          k = 0.2500 0.0000 0.0000 ( 26958 PWs)   bands (ev):

   -28.3290 -28.3266 -28.3259 -28.3250 -11.8695 -11.8676 -11.8632 -11.8627
   -11.8458 -11.8436 -11.8318 -11.8302 -11.8202 -11.8100 -11.8085 -11.7972
    -5.2395  -4.7164  -4.1827  -4.0061  -1.8797  -1.5991  -1.4829  -1.2042
    -1.1873  -1.1380  -1.0512  -0.9653  -0.7856  -0.7400  -0.7229  -0.5597
     4.6585   4.9045   4.9823   5.2988   5.3778   5.5217

          k = 0.2500 0.0000 0.2412 ( 26965 PWs)   bands (ev):

   -28.3287 -28.3266 -28.3261 -28.3251 -11.8730 -11.8683 -11.8607 -11.8525
   -11.8465 -11.8448 -11.8351 -11.8304 -11.8238 -11.8162 -11.8053 -11.7962
    -5.1689  -4.7073  -4.2340  -4.0428  -1.8399  -1.6176  -1.4480  -1.1728
    -1.1706  -1.1540  -1.0091  -0.9483  -0.8274  -0.8146  -0.7724  -0.6025
     4.8241   4.8363   5.0496   5.2769   5.3845   5.3854

          k = 0.2500 0.0000 0.4823 ( 27010 PWs)   bands (ev):

   -28.3280 -28.3271 -28.3259 -28.3254 -11.8735 -11.8693 -11.8542 -11.8466
   -11.8456 -11.8390 -11.8370 -11.8344 -11.8333 -11.8264 -11.8004 -11.7970
    -4.9842  -4.7798  -4.2553  -4.1489  -1.7491  -1.6022  -1.4400  -1.1891
    -1.0924  -1.0736  -1.0232  -0.9730  -0.9173  -0.8852  -0.8169  -0.7142
     4.8148   4.9507   5.2137   5.4230   5.4707   5.5626

          k = 0.2500 0.2555 0.0000 ( 26956 PWs)   bands (ev):

   -28.3287 -28.3265 -28.3261 -28.3251 -11.8674 -11.8673 -11.8652 -11.8587
   -11.8464 -11.8456 -11.8378 -11.8304 -11.8223 -11.8105 -11.8088 -11.7974
    -5.1539  -4.6638  -4.2125  -4.0385  -1.8473  -1.6179  -1.5036  -1.4076
    -1.2774  -1.1578  -1.0070  -0.8424  -0.8082  -0.7863  -0.7443  -0.6141
     4.8077   4.8275   5.1732   5.1800   5.6080   5.6492

          k = 0.2500 0.2555 0.2412 ( 26994 PWs)   bands (ev):

   -28.3285 -28.3266 -28.3262 -28.3252 -11.8720 -11.8699 -11.8588 -11.8560
   -11.8471 -11.8462 -11.8380 -11.8321 -11.8229 -11.8144 -11.8055 -11.7971
    -5.0866  -4.6556  -4.2472  -4.0676  -1.8639  -1.6295  -1.5077  -1.3343
    -1.3167  -1.1429  -1.0295  -0.9627  -0.8563  -0.7372  -0.6896  -0.6016
     4.8767   4.9067   5.0912   5.2268   5.5234   5.7037

          k = 0.2500 0.2555 0.4823 ( 27014 PWs)   bands (ev):

   -28.3279 -28.3271 -28.3259 -28.3255 -11.8726 -11.8719 -11.8590 -11.8554
   -11.8494 -11.8432 -11.8356 -11.8295 -11.8270 -11.8209 -11.8011 -11.7980
    -4.9124  -4.7229  -4.2512  -4.1553  -1.8063  -1.6544  -1.5518  -1.3934
    -1.2841  -1.1811  -1.0914  -0.9428  -0.8219  -0.7117  -0.6971  -0.6297
     4.9277   4.9693   5.1984   5.4596   5.4926   5.7226

          k = 0.2500 0.5109 0.0000 ( 26987 PWs)   bands (ev):

   -28.3281 -28.3266 -28.3262 -28.3253 -11.8672 -11.8660 -11.8641 -11.8517
   -11.8499 -11.8490 -11.8451 -11.8296 -11.8289 -11.8164 -11.8057 -11.7988
    -4.9199  -4.5195  -4.3450  -4.1465  -1.8151  -1.6953  -1.5649  -1.4810
    -1.3344  -1.1992  -1.0447  -0.9943  -0.8534  -0.7595  -0.7587  -0.6868
     4.8133   5.2536   5.2944   5.4580   5.7041   5.7982

          k = 0.2500 0.5109 0.2412 ( 26997 PWs)   bands (ev):

   -28.3280 -28.3268 -28.3260 -28.3254 -11.8755 -11.8668 -11.8606 -11.8587
   -11.8561 -11.8465 -11.8365 -11.8301 -11.8246 -11.8149 -11.8047 -11.7994
    -4.8641  -4.5201  -4.3333  -4.1569  -1.9495  -1.7325  -1.5544  -1.5199
    -1.3776  -1.2520  -1.0840  -0.9072  -0.8412  -0.7493  -0.7043  -0.5792
     4.9082   5.0454   5.4147   5.4841   5.7024   5.8036

          k = 0.2500 0.5109 0.4823 ( 27009 PWs)   bands (ev):

   -28.3276 -28.3272 -28.3258 -28.3256 -11.8799 -11.8754 -11.8618 -11.8615
   -11.8565 -11.8491 -11.8294 -11.8248 -11.8204 -11.8156 -11.8025 -11.8006
    -4.7253  -4.5825  -4.2762  -4.2001  -2.0327  -1.8987  -1.5841  -1.5608
    -1.4521  -1.3146  -1.0192  -0.9190  -0.7716  -0.6867  -0.5974  -0.5203
     5.0061   5.0687   5.3083   5.5275   5.8184   6.0480

          k = 0.2500-0.7664 0.0000 ( 26984 PWs)   bands (ev):

   -28.3274 -28.3274 -28.3257 -28.3257 -11.8659 -11.8659 -11.8616 -11.8616
   -11.8471 -11.8471 -11.8390 -11.8390 -11.8243 -11.8243 -11.8019 -11.8019
    -4.6106  -4.6106  -4.3251  -4.3251  -1.7290  -1.7290  -1.6056  -1.6056
    -1.2782  -1.2782  -1.0137  -1.0137  -0.8715  -0.8715  -0.7323  -0.7323
     5.0416   5.0416   5.6209   5.6209   6.1169   6.1170

          k = 0.2500-0.7664 0.2412 ( 27006 PWs)   bands (ev):

   -28.3274 -28.3274 -28.3257 -28.3257 -11.8732 -11.8732 -11.8624 -11.8624
   -11.8496 -11.8496 -11.8332 -11.8332 -11.8202 -11.8202 -11.8022 -11.8022
    -4.5817  -4.5817  -4.3136  -4.3136  -1.8616  -1.8616  -1.6873  -1.6873
    -1.2120  -1.2120  -1.0586  -1.0586  -0.8005  -0.8005  -0.6460  -0.6460
     5.0481   5.0481   5.5780   5.5780   5.9387   5.9387

          k = 0.2500-0.7664 0.4823 ( 26984 PWs)   bands (ev):

   -28.3273 -28.3273 -28.3257 -28.3257 -11.8818 -11.8818 -11.8634 -11.8634
   -11.8534 -11.8534 -11.8256 -11.8256 -11.8153 -11.8153 -11.8028 -11.8028
    -4.5308  -4.5308  -4.2964  -4.2964  -2.0741  -2.0741  -1.6857  -1.6857
    -1.3434  -1.3434  -0.9603  -0.9603  -0.7087  -0.7087  -0.5561  -0.5561
     5.0729   5.0729   5.5833   5.5833   5.9346   5.9347

          k =-0.5000 0.0000 0.0000 ( 27002 PWs)   bands (ev):

   -28.3279 -28.3279 -28.3254 -28.3254 -11.8684 -11.8684 -11.8552 -11.8552
   -11.8418 -11.8418 -11.8304 -11.8304 -11.8222 -11.8222 -11.8076 -11.8076
    -5.0091  -5.0091  -4.0844  -4.0844  -1.7355  -1.7355  -1.2454  -1.2454
    -1.1959  -1.1959  -1.0008  -1.0008  -0.7544  -0.7544  -0.6933  -0.6933
     4.8043   4.8043   4.9447   4.9447   5.3551   5.3551

          k =-0.5000 0.0000 0.2412 ( 26982 PWs)   bands (ev):

   -28.3277 -28.3277 -28.3256 -28.3256 -11.8670 -11.8670 -11.8533 -11.8533
   -11.8404 -11.8404 -11.8322 -11.8322 -11.8286 -11.8286 -11.8051 -11.8051
    -4.9553  -4.9553  -4.1477  -4.1477  -1.6884  -1.6884  -1.2307  -1.2307
    -1.1634  -1.1634  -1.0265  -1.0265  -0.8001  -0.8001  -0.7446  -0.7446
     4.8496   4.8496   5.0872   5.0872   5.2584   5.2584

          k =-0.5000 0.0000 0.4823 ( 26976 PWs)   bands (ev):

   -28.3272 -28.3272 -28.3260 -28.3260 -11.8634 -11.8634 -11.8494 -11.8494
   -11.8385 -11.8385 -11.8381 -11.8381 -11.8362 -11.8362 -11.8030 -11.8030
    -4.8437  -4.8437  -4.2753  -4.2753  -1.5721  -1.5721  -1.2472  -1.2472
    -1.0822  -1.0822  -1.0522  -1.0522  -0.9022  -0.9022  -0.8452  -0.8452
     4.9743   4.9743   5.3667   5.3667   5.3805   5.3805

          k =-0.5000 0.2555 0.0000 ( 26940 PWs)   bands (ev):

   -28.3277 -28.3277 -28.3255 -28.3255 -11.8651 -11.8651 -11.8571 -11.8571
   -11.8421 -11.8421 -11.8361 -11.8361 -11.8199 -11.8199 -11.8088 -11.8088
    -4.9369  -4.9369  -4.1184  -4.1184  -1.6821  -1.6821  -1.4725  -1.4725
    -1.1234  -1.1234  -1.0080  -1.0080  -0.7591  -0.7591  -0.7334  -0.7334
     4.7947   4.7947   5.1393   5.1393   5.3963   5.3963

          k =-0.5000 0.2555 0.2412 ( 26980 PWs)   bands (ev):

   -28.3275 -28.3275 -28.3257 -28.3257 -11.8675 -11.8675 -11.8523 -11.8523
   -11.8447 -11.8447 -11.8366 -11.8366 -11.8226 -11.8226 -11.8066 -11.8066
    -4.8860  -4.8860  -4.1665  -4.1665  -1.7182  -1.7182  -1.3927  -1.3927
    -1.1722  -1.1722  -0.9920  -0.9920  -0.8675  -0.8675  -0.6643  -0.6643
     4.8687   4.8687   5.1715   5.1715   5.3856   5.3856

          k =-0.5000 0.2555 0.4823 ( 26988 PWs)   bands (ev):

   -28.3271 -28.3271 -28.3261 -28.3261 -11.8683 -11.8683 -11.8515 -11.8515
   -11.8448 -11.8448 -11.8366 -11.8366 -11.8264 -11.8264 -11.8043 -11.8043
    -4.7816  -4.7816  -4.2685  -4.2685  -1.7195  -1.7195  -1.3134  -1.3134
    -1.2277  -1.2277  -1.0900  -1.0900  -0.8143  -0.8143  -0.6886  -0.6886
     5.0509   5.0509   5.1577   5.1577   5.5628   5.5628

          k =-0.5000 0.5109 0.0000 ( 27024 PWs)   bands (ev):

   -28.3272 -28.3272 -28.3259 -28.3259 -11.8602 -11.8602 -11.8563 -11.8563
   -11.8503 -11.8503 -11.8398 -11.8398 -11.8182 -11.8182 -11.8117 -11.8117
    -4.7397  -4.7397  -4.2461  -4.2461  -1.6689  -1.6689  -1.5143  -1.5143
    -1.3086  -1.3086  -0.9287  -0.9287  -0.9153  -0.9153  -0.7385  -0.7385
     4.9327   4.9327   5.3877   5.3877   5.6397   5.6397

          k =-0.5000 0.5109 0.2412 ( 27010 PWs)   bands (ev):

   -28.3271 -28.3271 -28.3260 -28.3260 -11.8687 -11.8687 -11.8574 -11.8574
   -11.8465 -11.8465 -11.8360 -11.8360 -11.8184 -11.8184 -11.8104 -11.8104
    -4.6986  -4.6986  -4.2583  -4.2583  -1.8163  -1.8163  -1.4996  -1.4996
    -1.2953  -1.2953  -0.9948  -0.9948  -0.8375  -0.8375  -0.6639  -0.6639
     4.9462   4.9462   5.3441   5.3441   5.7065   5.7065

          k =-0.5000 0.5109 0.4823 ( 27012 PWs)   bands (ev):

   -28.3269 -28.3269 -28.3263 -28.3263 -11.8742 -11.8742 -11.8654 -11.8654
   -11.8381 -11.8381 -11.8336 -11.8336 -11.8194 -11.8194 -11.8083 -11.8083
    -4.6173  -4.6173  -4.2931  -4.2931  -1.9342  -1.9342  -1.6425  -1.6425
    -1.1727  -1.1727  -1.0680  -1.0680  -0.7411  -0.7411  -0.6048  -0.6048
     5.0550   5.0550   5.2123   5.2123   6.0023   6.0023

          k =-0.5000-0.7664 0.0000 ( 27024 PWs)   bands (ev):

   -28.3265 -28.3265 -28.3265 -28.3265 -11.8583 -11.8583 -11.8583 -11.8583
   -11.8464 -11.8464 -11.8464 -11.8464 -11.8153 -11.8153 -11.8153 -11.8153
    -4.4778  -4.4778  -4.4778  -4.4778  -1.6146  -1.6146  -1.6146  -1.6146
    -1.1877  -1.1877  -1.1877  -1.1877  -0.8055  -0.8055  -0.8055  -0.8055
     5.1970   5.1970   5.1970   5.1970   6.3367   6.3367

          k =-0.5000-0.7664 0.2412 ( 27016 PWs)   bands (ev):

   -28.3265 -28.3265 -28.3265 -28.3265 -11.8662 -11.8662 -11.8662 -11.8662
   -11.8394 -11.8394 -11.8394 -11.8394 -11.8148 -11.8148 -11.8148 -11.8148
    -4.4564  -4.4564  -4.4564  -4.4564  -1.7466  -1.7466  -1.7466  -1.7466
    -1.1342  -1.1342  -1.1342  -1.1342  -0.7457  -0.7457  -0.7457  -0.7457
     5.1717   5.1717   5.1717   5.1717   6.2700   6.2700

          k =-0.5000-0.7664 0.4823 ( 27008 PWs)   bands (ev):

   -28.3265 -28.3265 -28.3265 -28.3265 -11.8739 -11.8739 -11.8739 -11.8739
   -11.8336 -11.8336 -11.8336 -11.8336 -11.8137 -11.8137 -11.8137 -11.8137
    -4.4205  -4.4205  -4.4205  -4.4205  -1.9103  -1.9103  -1.9103  -1.9103
    -1.0849  -1.0849  -1.0849  -1.0849  -0.6644  -0.6644  -0.6644  -0.6644
     5.1911   5.1911   5.1911   5.1911   6.1506   6.1506

     the Fermi energy is     2.5137 ev

!    total energy              =    -629.07405623 Ry
     estimated scf accuracy    <          5.9E-11 Ry
     smearing contrib. (-TS)   =       0.00000000 Ry
     internal energy E=F+TS    =    -629.07405623 Ry

     The total energy is F=E-TS. E is the sum of the following terms:
     one-electron contribution =    -109.43257373 Ry
     hartree contribution      =      71.29544951 Ry
     xc contribution           =     -66.56892548 Ry
     ewald contribution        =    -163.90252852 Ry
     one-center paw contrib.   =    -360.46547800 Ry

     convergence has been achieved in   5 iterations

     Forces acting on atoms (cartesian axes, Ry/au):

     atom    1 type  3   force =    -0.00009186    0.00000000   -0.00017352
     atom    2 type  3   force =     0.00009186   -0.00000000   -0.00017352
     atom    3 type  3   force =     0.00009186    0.00000000    0.00017352
     atom    4 type  3   force =    -0.00009186    0.00000000    0.00017352
     atom    5 type  1   force =     0.00025668   -0.00000000    0.00014021
     atom    6 type  1   force =    -0.00025668    0.00000000    0.00014021
     atom    7 type  1   force =    -0.00025668    0.00000000   -0.00014021
     atom    8 type  1   force =     0.00025668    0.00000000   -0.00014021
     atom    9 type  2   force =     0.00037082    0.00033503    0.00013504
     atom   10 type  2   force =    -0.00037082    0.00033503    0.00013504
     atom   11 type  2   force =    -0.00037082   -0.00033503    0.00013504
     atom   12 type  2   force =    -0.00037082    0.00033503   -0.00013504
     atom   13 type  2   force =    -0.00037082   -0.00033503   -0.00013504
     atom   14 type  2   force =     0.00037082   -0.00033503   -0.00013504
     atom   15 type  2   force =     0.00037082    0.00033503   -0.00013504
     atom   16 type  2   force =     0.00037082   -0.00033503    0.00013504
     atom   17 type  2   force =     0.00009098   -0.00000000   -0.00035515
     atom   18 type  2   force =    -0.00009098    0.00000000   -0.00035515
     atom   19 type  2   force =    -0.00009098    0.00000000    0.00035515
     atom   20 type  2   force =     0.00009098    0.00000000    0.00035515
     atom   21 type  2   force =     0.00002246    0.00000000   -0.00025161
     atom   22 type  2   force =    -0.00002246   -0.00000000   -0.00025161
     atom   23 type  2   force =    -0.00002246   -0.00000000    0.00025161
     atom   24 type  2   force =     0.00002246    0.00000000    0.00025161

     Total force =     0.001853     Total SCF correction =     0.000013


     Computing stress (Cartesian axis) and pressure

          total   stress  (Ry/bohr**3)                   (kbar)     P=        5.06
   0.00003560   0.00000000   0.00000000            5.24        0.00        0.00
   0.00000000   0.00003249   0.00000000            0.00        4.78        0.00
   0.00000000   0.00000000   0.00003519            0.00        0.00        5.18

     Energy error            =      9.7E-06 Ry
     Gradient error          =      3.7E-04 Ry/Bohr

     bfgs converged in   5 scf cycles and   4 bfgs steps
     (criteria: energy <  1.0E-04 Ry, force <  1.0E-03 Ry/Bohr)

     End of BFGS Geometry Optimization

     Final energy             =    -629.0740562276 Ry

     File ./kalh4.bfgs deleted, as requested
Begin final coordinates

ATOMIC_POSITIONS (crystal)
K             0.1764602255        0.2500000000        0.1652784563
K             0.3235397745        0.7500000000        0.6652784563
K             0.8235397745        0.7500000000        0.8347215437
K             0.6764602255        0.2500000000        0.3347215437
Al            0.0687993182        0.2500000000        0.6791431807
Al            0.4312006818        0.7500000000        0.1791431807
Al            0.9312006818        0.7500000000        0.3208568193
Al            0.5687993182        0.2500000000        0.8208568193
H             0.0780832498        0.0193196199        0.8118385343
H             0.4219167502        0.5193196199        0.3118385343
H             0.4219167502        0.9806803801        0.3118385343
H             0.9219167502        0.5193196199        0.1881614657
H             0.9219167502        0.9806803801        0.1881614657
H             0.5780832498        0.4806803801        0.6881614657
H             0.5780832498        0.0193196199        0.6881614657
H             0.0780832498        0.4806803801        0.8118385343
H             0.0911078360        0.7500000000        0.4345192055
H             0.4088921640        0.2500000000        0.9345192055
H             0.9088921640        0.2500000000        0.5654807945
H             0.5911078360        0.7500000000        0.0654807945
H             0.2169189313        0.2500000000        0.5433093303
H             0.2830810687        0.7500000000        0.0433093303
H             0.7830810687        0.7500000000        0.4566906697
H             0.7169189313        0.2500000000        0.9566906697
End final coordinates



     Writing all to output data dir ./kalh4.save/
 
     init_run     :      0.89s CPU      1.01s WALL (       1 calls)
     electrons    :     24.94s CPU     25.63s WALL (       5 calls)
     update_pot   :      0.96s CPU      0.97s WALL (       4 calls)
     forces       :      1.40s CPU      1.42s WALL (       5 calls)
     stress       :      3.90s CPU      3.91s WALL (       5 calls)

     Called by init_run:
     wfcinit      :      0.27s CPU      0.31s WALL (       1 calls)
     potinit      :      0.21s CPU      0.23s WALL (       1 calls)
     hinit0       :      0.13s CPU      0.16s WALL (       1 calls)

     Called by electrons:
     c_bands      :     19.17s CPU     19.52s WALL (      32 calls)
     sum_band     :      3.58s CPU      3.68s WALL (      32 calls)
     v_of_rho     :      0.38s CPU      0.40s WALL (      34 calls)
     newd         :      0.50s CPU      0.52s WALL (      34 calls)
     PAW_pot      :      1.66s CPU      1.70s WALL (      38 calls)
     mix_rho      :      0.08s CPU      0.08s WALL (      32 calls)

     Called by c_bands:
     init_us_2    :      0.67s CPU      0.69s WALL (     711 calls)
     init_us_2:cp :      0.67s CPU      0.68s WALL (     711 calls)
     cegterg      :     14.91s CPU     15.14s WALL (     288 calls)

     Called by *egterg:
     cdiaghg      :      1.87s CPU      1.92s WALL (    1193 calls)
     h_psi        :     10.20s CPU     10.38s WALL (    1265 calls)
     s_psi        :      0.85s CPU      0.86s WALL (    1265 calls)
     g_psi        :      0.05s CPU      0.05s WALL (     968 calls)

     Called by h_psi:
     h_psi:calbec :      1.15s CPU      1.18s WALL (    1265 calls)
     vloc_psi     :      7.93s CPU      8.07s WALL (    1265 calls)
     add_vuspsi   :      1.01s CPU      1.02s WALL (    1265 calls)

     General routines
     calbec       :      1.80s CPU      1.84s WALL (    1814 calls)
     fft          :      0.29s CPU      0.32s WALL (     564 calls)
     ffts         :      0.04s CPU      0.04s WALL (      66 calls)
     fftw         :      8.48s CPU      8.64s WALL (   69408 calls)
     interpolate  :      0.04s CPU      0.04s WALL (      34 calls)
 
     Parallel routines
 
     PWSCF        :     32.87s CPU     34.05s WALL

 
   This run was terminated on:  17:19:24  27Nov2023            

=------------------------------------------------------------------------------=
   JOB DONE.
=------------------------------------------------------------------------------=
Job execution finished at: Mon Nov 27 17:19:24 IST 2023
