==========================================
SLURM_CLUSTER_NAME = paramganga
SLURM_ARRAY_JOB_ID = 
SLURM_ARRAY_TASK_ID = 
SLURM_ARRAY_TASK_COUNT = 
SLURM_ARRAY_TASK_MAX = 
SLURM_ARRAY_TASK_MIN = 
SLURM_JOB_ACCOUNT = iitr
SLURM_JOB_ID = 173879
SLURM_JOB_NAME = 19280
SLURM_JOB_NODELIST = cn[087-089]
SLURM_JOB_USER = garima.iitr
SLURM_JOB_UID = 38339
SLURM_JOB_PARTITION = small
SLURM_TASK_PID = 32415
SLURM_SUBMIT_DIR = /home/garima.iitr/.cache/.es/compmat/kalh4
SLURM_CPUS_ON_NODE = 48
SLURM_NTASKS = 144
SLURM_TASK_PID = 32415
==========================================
cn087
 
:: initializing oneAPI environment ...
   slurm_script: BASH_VERSION = 4.2.46(2)-release
   args: Using "$@" for setvars.sh arguments: 
:: advisor -- latest
:: ccl -- latest
:: clck -- latest
:: compiler -- latest
:: dal -- latest
:: debugger -- latest
:: dev-utilities -- latest
:: dnnl -- latest
:: dpcpp-ct -- latest
:: dpl -- latest
:: inspector -- latest
:: intelpython -- latest
:: ipp -- latest
:: ippcp -- latest
:: ipp -- latest
:: itac -- latest
:: mkl -- latest
:: mpi -- latest
:: tbb -- latest
:: vpl -- latest
:: vtune -- latest
:: oneAPI environment initialized ::
 
Job execution start: Mon Nov 27 19:37:23 IST 2023
Job submitted by garima.iitr
The job ID is:173879

     Program PWSCF v.7.1 starts on 27Nov2023 at 19:37:27 

     This program is part of the open-source Quantum ESPRESSO suite
     for quantum simulation of materials; please cite
         "P. Giannozzi et al., J. Phys.:Condens. Matter 21 395502 (2009);
         "P. Giannozzi et al., J. Phys.:Condens. Matter 29 465901 (2017);
         "P. Giannozzi et al., J. Chem. Phys. 152 154105 (2020);
          URL http://www.quantum-espresso.org", 
     in publications or presentations arising from this work. More details at
     http://www.quantum-espresso.org/quote

     Parallel version (MPI & OpenMP), running on     144 processor cores
     Number of MPI processes:               144
     Threads/MPI process:                     1

     MPI processes distributed on     3 nodes
     169428 MiB available memory on the printing compute node when the environment starts
 
     Reading input from kalh4.in

     Current dimensions of program PWSCF are:
     Max number of different atomic species (ntypx) = 10
     Max number of k-points (npk) =  40000
     Max angular momentum in pseudopotentials (lmaxx) =  4
     file Al.pbe-n-kjpaw_psl.1.0.0.UPF: wavefunction(s)  3S 3P renormalized
     file K.pbe-spn-kjpaw_psl.1.0.0.UPF: wavefunction(s)  3S renormalized

     IMPORTANT: XC functional enforced from input :
     Exchange-correlation= PBE
                           (   1   4   3   4   0   0   0)
     Any further DFT definition will be discarded
     Please, verify this is what you really want

     Message from routine setup:
     using ibrav=0 with symmetry is DISCOURAGED, use correct ibrav instead
 
     K-points division:     npool     =       4
     R & G space division:  proc/nbgrp/npool/nimage =      36
     Subspace diagonalization in iterative solution of the eigenvalue problem:
     a serial algorithm will be used

 
     Parallelization info
     --------------------
     sticks:   dense  smooth     PW     G-vecs:    dense   smooth      PW
     Min         147     118     32                 8378     6000     854
     Max         150     119     33                 8380     6003     857
     Sum        5341    4277   1173               301629   216059   30815
 
     Using Slab Decomposition
 


     bravais-lattice index     =            0
     lattice parameter (alat)  =      16.5693  a.u.
     unit-cell volume          =    2461.0457 (a.u.)^3
     number of atoms/cell      =           24
     number of atomic types    =            3
     number of electrons       =        64.00
     number of Kohn-Sham states=           38
     kinetic-energy cutoff     =      75.0000  Ry
     charge density cutoff     =     375.0000  Ry
     scf convergence threshold =      1.0E-08
     mixing beta               =       0.7000
     number of iterations used =            8  plain     mixing
     energy convergence thresh.=      1.0E-04
     force convergence thresh. =      1.0E-03
     press convergence thresh. =      5.0E-01
     Exchange-correlation= PBE
                           (   1   4   3   4   0   0   0)
     nstep                     =           50


     celldm(1)=  16.569251  celldm(2)=   0.000000  celldm(3)=   0.000000
     celldm(4)=   0.000000  celldm(5)=   0.000000  celldm(6)=   0.000000

     crystal axes: (cart. coord. in units of alat)
               a(1) = (   1.000000   0.000000   0.000000 )  
               a(2) = (   0.000000   0.652381   0.000000 )  
               a(3) = (   0.000000   0.000000   0.829296 )  

     reciprocal axes: (cart. coord. in units 2 pi/alat)
               b(1) = (  1.000000  0.000000  0.000000 )  
               b(2) = (  0.000000  1.532846  0.000000 )  
               b(3) = (  0.000000  0.000000  1.205842 )  


     PseudoPot. # 1 for Al read from file:
     /home/garima.iitr/.cache/.es/compmat/kalh4/Al.pbe-n-kjpaw_psl.1.0.0.UPF
     MD5 check sum: 502b6b27b9c6270cab5dd1084b96fa6d
     Pseudo is Projector augmented-wave + core cor, Zval =  3.0
     Generated using &quot;atomic&quot; code by A. Dal Corso  v.6.3
     Shape of augmentation charge: PSQ
     Using radial grid of 1135 points,  6 beta functions with: 
                l(1) =   0
                l(2) =   0
                l(3) =   1
                l(4) =   1
                l(5) =   2
                l(6) =   2
     Q(r) pseudized with 0 coefficients 


     PseudoPot. # 2 for H  read from file:
     /home/garima.iitr/.cache/.es/compmat/kalh4/H.pbe-rrkjus_psl.1.0.0.UPF
     MD5 check sum: 3f4114867bd07edc7f1424d066fc1888
     Pseudo is Ultrasoft, Zval =  1.0
     Generated using &quot;atomic&quot; code by A. Dal Corso  v.6.3MaX
     Using radial grid of  929 points,  2 beta functions with: 
                l(1) =   0
                l(2) =   0
     Q(r) pseudized with 0 coefficients 


     PseudoPot. # 3 for K  read from file:
     /home/garima.iitr/.cache/.es/compmat/kalh4/K.pbe-spn-kjpaw_psl.1.0.0.UPF
     MD5 check sum: 34cc42130a09071ebe376fd42eb21491
     Pseudo is Projector augmented-wave + core cor, Zval =  9.0
     Generated using &quot;atomic&quot; code by A. Dal Corso  v.6.2.2
     Shape of augmentation charge: PSQ
     Using radial grid of 1165 points,  6 beta functions with: 
                l(1) =   0
                l(2) =   0
                l(3) =   1
                l(4) =   1
                l(5) =   2
                l(6) =   2
     Q(r) pseudized with 0 coefficients 


     atomic species   valence    mass     pseudopotential
        Al             3.00    26.98100     Al( 1.00)
        H              1.00     1.00750     H ( 1.00)
        K              9.00    39.09830     K ( 1.00)

      8 Sym. Ops., with inversion, found ( 6 have fractional translation)



   Cartesian axes

     site n.     atom                  positions (alat units)
         1           K   tau(   1) = (   0.1764602   0.1630954   0.1370647  )
         2           K   tau(   2) = (   0.3235398   0.4892861   0.5517126  )
         3           K   tau(   3) = (   0.8235398   0.4892861   0.6922311  )
         4           K   tau(   4) = (   0.6764602   0.1630954   0.2775832  )
         5           Al  tau(   5) = (   0.0687993   0.1630954   0.5632106  )
         6           Al  tau(   6) = (   0.4312007   0.4892861   0.1485627  )
         7           Al  tau(   7) = (   0.9312007   0.4892861   0.2660852  )
         8           Al  tau(   8) = (   0.5687993   0.1630954   0.6807331  )
         9           H   tau(   9) = (   0.0780832   0.0126038   0.6732543  )
        10           H   tau(  10) = (   0.4219168   0.3387945   0.2586064  )
        11           H   tau(  11) = (   0.4219168   0.6397777   0.2586064  )
        12           H   tau(  12) = (   0.9219168   0.3387945   0.1560415  )
        13           H   tau(  13) = (   0.9219168   0.6397777   0.1560415  )
        14           H   tau(  14) = (   0.5780832   0.3135870   0.5706894  )
        15           H   tau(  15) = (   0.5780832   0.0126038   0.5706894  )
        16           H   tau(  16) = (   0.0780832   0.3135870   0.6732543  )
        17           H   tau(  17) = (   0.0911078   0.4892861   0.3603449  )
        18           H   tau(  18) = (   0.4088922   0.1630954   0.7749928  )
        19           H   tau(  19) = (   0.9088922   0.1630954   0.4689508  )
        20           H   tau(  20) = (   0.5911078   0.4892861   0.0543029  )
        21           H   tau(  21) = (   0.2169189   0.1630954   0.4505641  )
        22           H   tau(  22) = (   0.2830811   0.4892861   0.0359162  )
        23           H   tau(  23) = (   0.7830811   0.4892861   0.3787316  )
        24           H   tau(  24) = (   0.7169189   0.1630954   0.7933795  )

     number of k points=    36  Marzari-Vanderbilt smearing, width (Ry)=  0.0050
                       cart. coord. in units 2pi/alat
        k(    1) = (   0.0000000   0.0000000   0.0000000), wk =   0.0166667
        k(    2) = (   0.0000000   0.0000000   0.2411685), wk =   0.0333333
        k(    3) = (   0.0000000   0.0000000   0.4823369), wk =   0.0333333
        k(    4) = (   0.0000000   0.2554743   0.0000000), wk =   0.0333333
        k(    5) = (   0.0000000   0.2554743   0.2411685), wk =   0.0666667
        k(    6) = (   0.0000000   0.2554743   0.4823369), wk =   0.0666667
        k(    7) = (   0.0000000   0.5109485   0.0000000), wk =   0.0333333
        k(    8) = (   0.0000000   0.5109485   0.2411685), wk =   0.0666667
        k(    9) = (   0.0000000   0.5109485   0.4823369), wk =   0.0666667
        k(   10) = (   0.0000000  -0.7664228   0.0000000), wk =   0.0166667
        k(   11) = (   0.0000000  -0.7664228   0.2411685), wk =   0.0333333
        k(   12) = (   0.0000000  -0.7664228   0.4823369), wk =   0.0333333
        k(   13) = (   0.2500000   0.0000000   0.0000000), wk =   0.0333333
        k(   14) = (   0.2500000   0.0000000   0.2411685), wk =   0.0666667
        k(   15) = (   0.2500000   0.0000000   0.4823369), wk =   0.0666667
        k(   16) = (   0.2500000   0.2554743   0.0000000), wk =   0.0666667
        k(   17) = (   0.2500000   0.2554743   0.2411685), wk =   0.1333333
        k(   18) = (   0.2500000   0.2554743   0.4823369), wk =   0.1333333
        k(   19) = (   0.2500000   0.5109485   0.0000000), wk =   0.0666667
        k(   20) = (   0.2500000   0.5109485   0.2411685), wk =   0.1333333
        k(   21) = (   0.2500000   0.5109485   0.4823369), wk =   0.1333333
        k(   22) = (   0.2500000  -0.7664228   0.0000000), wk =   0.0333333
        k(   23) = (   0.2500000  -0.7664228   0.2411685), wk =   0.0666667
        k(   24) = (   0.2500000  -0.7664228   0.4823369), wk =   0.0666667
        k(   25) = (  -0.5000000   0.0000000   0.0000000), wk =   0.0166667
        k(   26) = (  -0.5000000   0.0000000   0.2411685), wk =   0.0333333
        k(   27) = (  -0.5000000   0.0000000   0.4823369), wk =   0.0333333
        k(   28) = (  -0.5000000   0.2554743   0.0000000), wk =   0.0333333
        k(   29) = (  -0.5000000   0.2554743   0.2411685), wk =   0.0666667
        k(   30) = (  -0.5000000   0.2554743   0.4823369), wk =   0.0666667
        k(   31) = (  -0.5000000   0.5109485   0.0000000), wk =   0.0333333
        k(   32) = (  -0.5000000   0.5109485   0.2411685), wk =   0.0666667
        k(   33) = (  -0.5000000   0.5109485   0.4823369), wk =   0.0666667
        k(   34) = (  -0.5000000  -0.7664228   0.0000000), wk =   0.0166667
        k(   35) = (  -0.5000000  -0.7664228   0.2411685), wk =   0.0333333
        k(   36) = (  -0.5000000  -0.7664228   0.4823369), wk =   0.0333333

     Dense  grid:   301629 G-vectors     FFT dimensions: ( 108,  72,  90)

     Smooth grid:   216059 G-vectors     FFT dimensions: (  96,  60,  80)

     Estimated max dynamical RAM per process >      28.80 MB

     Estimated total dynamical RAM >       3.83 GB

     Check: negative core charge=   -0.000001

     Initial potential from superposition of free atoms

     starting charge      63.9154, renormalised to      64.0000
     Starting wfcs are   64 randomized atomic wfcs
     Checking if some PAW data can be deallocated... 

     total cpu time spent up to now is        2.7 secs

     Self-consistent Calculation

     iteration #  1     ecut=    75.00 Ry     beta= 0.70
     Davidson diagonalization with overlap
     ethr =  1.00E-02,  avg # of iterations =  4.1

     total cpu time spent up to now is        3.8 secs

     total energy              =    -628.95501886 Ry
     estimated scf accuracy    <       1.24578905 Ry

     iteration #  2     ecut=    75.00 Ry     beta= 0.70
     Davidson diagonalization with overlap
     ethr =  1.95E-03,  avg # of iterations =  2.0

     total cpu time spent up to now is        4.5 secs

     total energy              =    -629.06748716 Ry
     estimated scf accuracy    <       0.01399343 Ry

     iteration #  3     ecut=    75.00 Ry     beta= 0.70
     Davidson diagonalization with overlap
     c_bands:  1 eigenvalues not converged
     ethr =  2.19E-05,  avg # of iterations = 13.0

     total cpu time spent up to now is        6.1 secs

     total energy              =    -629.07367980 Ry
     estimated scf accuracy    <       0.00074010 Ry

     iteration #  4     ecut=    75.00 Ry     beta= 0.70
     Davidson diagonalization with overlap
     c_bands:  1 eigenvalues not converged
     ethr =  1.16E-06,  avg # of iterations =  7.1

     total cpu time spent up to now is        7.3 secs

     total energy              =    -629.07403966 Ry
     estimated scf accuracy    <       0.00005667 Ry

     iteration #  5     ecut=    75.00 Ry     beta= 0.70
     Davidson diagonalization with overlap
     ethr =  8.85E-08,  avg # of iterations =  2.8

     total cpu time spent up to now is        8.1 secs

     total energy              =    -629.07405483 Ry
     estimated scf accuracy    <       0.00000459 Ry

     iteration #  6     ecut=    75.00 Ry     beta= 0.70
     Davidson diagonalization with overlap
     ethr =  7.18E-09,  avg # of iterations =  3.8

     total cpu time spent up to now is        8.9 secs

     total energy              =    -629.07405612 Ry
     estimated scf accuracy    <       0.00000013 Ry

     iteration #  7     ecut=    75.00 Ry     beta= 0.70
     Davidson diagonalization with overlap
     ethr =  2.03E-10,  avg # of iterations =  4.6

     total cpu time spent up to now is        9.8 secs

     End of self-consistent calculation

          k = 0.0000 0.0000 0.0000 ( 26965 PWs)   bands (ev):

   -28.3294 -28.3261 -28.3261 -28.3249 -11.8784 -11.8664 -11.8624 -11.8602
   -11.8596 -11.8408 -11.8325 -11.8313 -11.8177 -11.8084 -11.8027 -11.7894
    -5.3244  -4.5565  -4.2241  -3.9979  -1.8551  -1.8253  -1.2402  -1.2380
    -1.2077  -1.1960  -1.1837  -0.9065  -0.7985  -0.7403  -0.7098  -0.4817
     4.5523   5.0850   5.2446   5.3735   5.4142   5.4815

          k = 0.0000 0.0000 0.2412 ( 26960 PWs)   bands (ev):

   -28.3291 -28.3265 -28.3259 -28.3249 -11.8812 -11.8648 -11.8636 -11.8589
   -11.8511 -11.8394 -11.8378 -11.8302 -11.8223 -11.8121 -11.8007 -11.7901
    -5.2491  -4.6040  -4.2304  -4.0156  -1.8864  -1.7413  -1.4698  -1.1767
    -1.1501  -1.1240  -1.0544  -0.8716  -0.8554  -0.8386  -0.7609  -0.5205
     4.7238   4.9021   5.1053   5.4104   5.4747   5.5173

          k = 0.0000 0.0000 0.4823 ( 26960 PWs)   bands (ev):

   -28.3284 -28.3274 -28.3256 -28.3252 -11.8809 -11.8741 -11.8563 -11.8487
   -11.8467 -11.8361 -11.8359 -11.8346 -11.8321 -11.8220 -11.7963 -11.7924
    -5.0472  -4.7914  -4.1761  -4.0797  -1.8638  -1.7056  -1.5038  -1.1874
    -1.0970  -1.0707  -0.9727  -0.9575  -0.9229  -0.8778  -0.7680  -0.6288
     4.7436   4.8230   5.1361   5.4729   5.7505   5.7773

          k = 0.0000 0.2555 0.0000 ( 26958 PWs)   bands (ev):

   -28.3292 -28.3264 -28.3260 -28.3249 -11.8773 -11.8683 -11.8620 -11.8597
   -11.8556 -11.8400 -11.8386 -11.8338 -11.8197 -11.8105 -11.8016 -11.7901
    -5.2341  -4.5167  -4.2516  -4.0243  -1.8781  -1.7613  -1.5252  -1.3640
    -1.1734  -1.1381  -1.1184  -0.8847  -0.8106  -0.7626  -0.7220  -0.5347
     4.7554   4.9420   5.2136   5.3093   5.6337   5.7368

          k = 0.0000 0.2555 0.2412 ( 27007 PWs)   bands (ev):

   -28.3289 -28.3267 -28.3258 -28.3250 -11.8784 -11.8705 -11.8654 -11.8534
   -11.8514 -11.8467 -11.8356 -11.8331 -11.8215 -11.8127 -11.7999 -11.7908
    -5.1622  -4.5622  -4.2449  -4.0387  -1.8712  -1.8079  -1.4734  -1.3449
    -1.2902  -1.1417  -1.0955  -0.9574  -0.8487  -0.6982  -0.6347  -0.5691
     4.8524   4.9633   5.0693   5.4065   5.6424   5.6795

          k = 0.0000 0.2555 0.4823 ( 27013 PWs)   bands (ev):

   -28.3283 -28.3274 -28.3255 -28.3252 -11.8777 -11.8725 -11.8682 -11.8591
   -11.8463 -11.8389 -11.8382 -11.8277 -11.8267 -11.8185 -11.7964 -11.7929
    -4.9712  -4.7341  -4.1821  -4.0935  -1.8104  -1.7340  -1.6552  -1.4982
    -1.2447  -1.1727  -1.0721  -0.9095  -0.8162  -0.7090  -0.6128  -0.5942
     4.8746   4.8973   5.2129   5.6072   5.7038   5.9331

          k = 0.0000 0.5109 0.0000 ( 27000 PWs)   bands (ev):

   -28.3285 -28.3269 -28.3257 -28.3251 -11.8751 -11.8691 -11.8667 -11.8534
   -11.8520 -11.8468 -11.8395 -11.8355 -11.8262 -11.8169 -11.7988 -11.7921
    -4.9873  -4.4059  -4.3843  -4.1117  -1.8933  -1.7313  -1.6088  -1.5732
    -1.2723  -1.0757  -1.0133  -0.9955  -0.9830  -0.7669  -0.6703  -0.6456
     4.8562   5.2989   5.3627   5.4322   5.9014   6.0107

          k = 0.0000 0.5109 0.2412 ( 26994 PWs)   bands (ev):

   -28.3284 -28.3271 -28.3256 -28.3251 -11.8761 -11.8730 -11.8678 -11.8618
   -11.8530 -11.8432 -11.8394 -11.8280 -11.8259 -11.8150 -11.7980 -11.7927
    -4.9272  -4.4760  -4.3136  -4.1174  -1.9576  -1.8540  -1.5850  -1.5368
    -1.3042  -1.2723  -1.1288  -0.8594  -0.8299  -0.7651  -0.6696  -0.5280
     4.9836   5.2682   5.3090   5.3950   5.7926   5.8235

          k = 0.0000 0.5109 0.4823 ( 27005 PWs)   bands (ev):

   -28.3280 -28.3275 -28.3255 -28.3253 -11.8802 -11.8749 -11.8701 -11.8690
   -11.8550 -11.8477 -11.8308 -11.8247 -11.8195 -11.8150 -11.7961 -11.7942
    -4.7741  -4.6006  -4.2224  -4.1495  -2.0492  -1.9102  -1.6672  -1.5641
    -1.4220  -1.3904  -1.0140  -0.8927  -0.7931  -0.6918  -0.5357  -0.4607
     5.0958   5.1363   5.4400   5.5579   5.8122   5.8642

          k = 0.0000-0.7664 0.0000 ( 27022 PWs)   bands (ev):

   -28.3277 -28.3277 -28.3254 -28.3254 -11.8717 -11.8717 -11.8639 -11.8639
   -11.8462 -11.8462 -11.8360 -11.8360 -11.8265 -11.8265 -11.7953 -11.7953
    -4.6614  -4.6614  -4.2540  -4.2540  -1.8054  -1.8054  -1.6229  -1.6229
    -1.3135  -1.3135  -0.8769  -0.8769  -0.8746  -0.8746  -0.7536  -0.7536
     5.1040   5.1040   5.7611   5.7611   5.9042   5.9042

          k = 0.0000-0.7664 0.2412 ( 27018 PWs)   bands (ev):

   -28.3277 -28.3277 -28.3254 -28.3254 -11.8740 -11.8740 -11.8696 -11.8696
   -11.8469 -11.8469 -11.8343 -11.8343 -11.8204 -11.8204 -11.7953 -11.7953
    -4.6297  -4.6297  -4.2475  -4.2475  -1.8927  -1.8927  -1.7434  -1.7434
    -1.1605  -1.1605  -1.0677  -1.0677  -0.8210  -0.8210  -0.5956  -0.5956
     5.2289   5.2289   5.4525   5.4525   5.9502   5.9503

          k = 0.0000-0.7664 0.4823 ( 26988 PWs)   bands (ev):

   -28.3277 -28.3277 -28.3254 -28.3254 -11.8831 -11.8831 -11.8661 -11.8661
   -11.8557 -11.8557 -11.8265 -11.8265 -11.8152 -11.8152 -11.7954 -11.7954
    -4.5733  -4.5733  -4.2401  -4.2401  -2.1209  -2.1209  -1.6158  -1.6158
    -1.4138  -1.4138  -0.9849  -0.9849  -0.7191  -0.7191  -0.4844  -0.4844
     5.1800   5.1800   5.7275   5.7279   5.8472   5.8473

          k = 0.2500 0.0000 0.0000 ( 26958 PWs)   bands (ev):

   -28.3290 -28.3266 -28.3259 -28.3250 -11.8696 -11.8676 -11.8632 -11.8627
   -11.8458 -11.8436 -11.8318 -11.8302 -11.8203 -11.8100 -11.8085 -11.7972
    -5.2397  -4.7165  -4.1828  -4.0061  -1.8798  -1.5992  -1.4830  -1.2043
    -1.1873  -1.1381  -1.0513  -0.9654  -0.7857  -0.7401  -0.7229  -0.5598
     4.6583   4.9044   4.9821   5.2986   5.3780   5.5218

          k = 0.2500 0.0000 0.2412 ( 26965 PWs)   bands (ev):

   -28.3287 -28.3266 -28.3261 -28.3251 -11.8730 -11.8683 -11.8607 -11.8525
   -11.8465 -11.8448 -11.8351 -11.8304 -11.8238 -11.8162 -11.8053 -11.7962
    -5.1690  -4.7074  -4.2340  -4.0428  -1.8400  -1.6177  -1.4481  -1.1728
    -1.1708  -1.1540  -1.0092  -0.9484  -0.8274  -0.8147  -0.7724  -0.6026
     4.8239   4.8361   5.0495   5.2769   5.3846   5.3853

          k = 0.2500 0.0000 0.4823 ( 27010 PWs)   bands (ev):

   -28.3280 -28.3271 -28.3259 -28.3254 -11.8735 -11.8693 -11.8542 -11.8466
   -11.8456 -11.8390 -11.8370 -11.8344 -11.8333 -11.8264 -11.8004 -11.7970
    -4.9843  -4.7799  -4.2554  -4.1490  -1.7492  -1.6023  -1.4401  -1.1892
    -1.0924  -1.0736  -1.0233  -0.9731  -0.9174  -0.8852  -0.8170  -0.7143
     4.8147   4.9507   5.2135   5.4230   5.4705   5.5627

          k = 0.2500 0.2555 0.0000 ( 26956 PWs)   bands (ev):

   -28.3287 -28.3265 -28.3261 -28.3251 -11.8674 -11.8673 -11.8652 -11.8587
   -11.8464 -11.8456 -11.8378 -11.8304 -11.8223 -11.8105 -11.8088 -11.7974
    -5.1540  -4.6639  -4.2126  -4.0385  -1.8474  -1.6180  -1.5037  -1.4078
    -1.2776  -1.1579  -1.0071  -0.8425  -0.8083  -0.7864  -0.7444  -0.6142
     4.8075   4.8273   5.1731   5.1799   5.6080   5.6493

          k = 0.2500 0.2555 0.2412 ( 26994 PWs)   bands (ev):

   -28.3285 -28.3266 -28.3262 -28.3252 -11.8720 -11.8699 -11.8588 -11.8560
   -11.8471 -11.8462 -11.8380 -11.8321 -11.8229 -11.8144 -11.8055 -11.7971
    -5.0867  -4.6557  -4.2473  -4.0677  -1.8640  -1.6296  -1.5078  -1.3344
    -1.3168  -1.1429  -1.0296  -0.9628  -0.8564  -0.7373  -0.6897  -0.6017
     4.8765   4.9065   5.0910   5.2267   5.5232   5.7036

          k = 0.2500 0.2555 0.4823 ( 27014 PWs)   bands (ev):

   -28.3279 -28.3271 -28.3259 -28.3255 -11.8726 -11.8719 -11.8590 -11.8554
   -11.8494 -11.8432 -11.8356 -11.8295 -11.8270 -11.8209 -11.8011 -11.7980
    -4.9125  -4.7230  -4.2513  -4.1554  -1.8064  -1.6545  -1.5519  -1.3936
    -1.2842  -1.1812  -1.0915  -0.9429  -0.8220  -0.7118  -0.6972  -0.6298
     4.9275   4.9691   5.1983   5.4596   5.4927   5.7226

          k = 0.2500 0.5109 0.0000 ( 26987 PWs)   bands (ev):

   -28.3281 -28.3266 -28.3262 -28.3253 -11.8672 -11.8660 -11.8642 -11.8517
   -11.8499 -11.8490 -11.8451 -11.8296 -11.8289 -11.8164 -11.8057 -11.7988
    -4.9201  -4.5196  -4.3451  -4.1466  -1.8152  -1.6954  -1.5650  -1.4811
    -1.3345  -1.1993  -1.0448  -0.9944  -0.8535  -0.7596  -0.7588  -0.6869
     4.8132   5.2534   5.2943   5.4578   5.7039   5.7981

          k = 0.2500 0.5109 0.2412 ( 26997 PWs)   bands (ev):

   -28.3280 -28.3268 -28.3260 -28.3254 -11.8755 -11.8668 -11.8606 -11.8587
   -11.8561 -11.8465 -11.8365 -11.8301 -11.8246 -11.8149 -11.8047 -11.7994
    -4.8642  -4.5202  -4.3334  -4.1570  -1.9496  -1.7326  -1.5545  -1.5200
    -1.3777  -1.2520  -1.0842  -0.9073  -0.8412  -0.7494  -0.7044  -0.5793
     4.9081   5.0453   5.4146   5.4841   5.7024   5.8035

          k = 0.2500 0.5109 0.4823 ( 27009 PWs)   bands (ev):

   -28.3276 -28.3272 -28.3258 -28.3256 -11.8799 -11.8754 -11.8618 -11.8615
   -11.8565 -11.8492 -11.8294 -11.8248 -11.8204 -11.8156 -11.8025 -11.8006
    -4.7254  -4.5826  -4.2763  -4.2002  -2.0328  -1.8988  -1.5842  -1.5609
    -1.4523  -1.3147  -1.0193  -0.9190  -0.7717  -0.6868  -0.5975  -0.5204
     5.0059   5.0686   5.3081   5.5274   5.8183   6.0477

          k = 0.2500-0.7664 0.0000 ( 26984 PWs)   bands (ev):

   -28.3274 -28.3274 -28.3257 -28.3257 -11.8659 -11.8659 -11.8616 -11.8616
   -11.8471 -11.8471 -11.8390 -11.8390 -11.8243 -11.8243 -11.8019 -11.8019
    -4.6107  -4.6107  -4.3252  -4.3252  -1.7291  -1.7291  -1.6056  -1.6056
    -1.2783  -1.2783  -1.0138  -1.0138  -0.8716  -0.8716  -0.7323  -0.7323
     5.0414   5.0414   5.6207   5.6207   6.1169   6.1171

          k = 0.2500-0.7664 0.2412 ( 27006 PWs)   bands (ev):

   -28.3274 -28.3274 -28.3257 -28.3257 -11.8732 -11.8732 -11.8624 -11.8624
   -11.8496 -11.8496 -11.8332 -11.8332 -11.8202 -11.8202 -11.8022 -11.8022
    -4.5818  -4.5818  -4.3136  -4.3136  -1.8617  -1.8617  -1.6874  -1.6874
    -1.2121  -1.2121  -1.0587  -1.0587  -0.8006  -0.8006  -0.6461  -0.6461
     5.0479   5.0479   5.5778   5.5779   5.9389   5.9391

          k = 0.2500-0.7664 0.4823 ( 26984 PWs)   bands (ev):

   -28.3273 -28.3273 -28.3257 -28.3257 -11.8818 -11.8818 -11.8634 -11.8634
   -11.8534 -11.8534 -11.8256 -11.8256 -11.8153 -11.8153 -11.8028 -11.8028
    -4.5309  -4.5309  -4.2965  -4.2965  -2.0742  -2.0742  -1.6858  -1.6858
    -1.3435  -1.3435  -0.9604  -0.9604  -0.7088  -0.7088  -0.5562  -0.5562
     5.0728   5.0728   5.5831   5.5832   5.9349   5.9351

          k =-0.5000 0.0000 0.0000 ( 27002 PWs)   bands (ev):

   -28.3279 -28.3279 -28.3254 -28.3254 -11.8684 -11.8684 -11.8552 -11.8552
   -11.8418 -11.8418 -11.8304 -11.8304 -11.8222 -11.8222 -11.8076 -11.8076
    -5.0092  -5.0092  -4.0845  -4.0845  -1.7356  -1.7356  -1.2455  -1.2455
    -1.1959  -1.1959  -1.0009  -1.0009  -0.7545  -0.7545  -0.6934  -0.6934
     4.8041   4.8041   4.9445   4.9445   5.3550   5.3550

          k =-0.5000 0.0000 0.2412 ( 26982 PWs)   bands (ev):

   -28.3277 -28.3277 -28.3256 -28.3256 -11.8670 -11.8670 -11.8533 -11.8533
   -11.8404 -11.8404 -11.8322 -11.8322 -11.8286 -11.8286 -11.8051 -11.8051
    -4.9554  -4.9554  -4.1477  -4.1477  -1.6885  -1.6885  -1.2308  -1.2308
    -1.1635  -1.1635  -1.0266  -1.0266  -0.8001  -0.8001  -0.7447  -0.7447
     4.8494   4.8494   5.0871   5.0871   5.2586   5.2586

          k =-0.5000 0.0000 0.4823 ( 26976 PWs)   bands (ev):

   -28.3272 -28.3272 -28.3260 -28.3260 -11.8634 -11.8634 -11.8494 -11.8494
   -11.8385 -11.8385 -11.8381 -11.8381 -11.8362 -11.8362 -11.8030 -11.8030
    -4.8438  -4.8438  -4.2754  -4.2754  -1.5722  -1.5722  -1.2473  -1.2473
    -1.0823  -1.0823  -1.0523  -1.0523  -0.9023  -0.9023  -0.8453  -0.8453
     4.9741   4.9741   5.3666   5.3666   5.3803   5.3803

          k =-0.5000 0.2555 0.0000 ( 26940 PWs)   bands (ev):

   -28.3277 -28.3277 -28.3255 -28.3255 -11.8651 -11.8651 -11.8571 -11.8571
   -11.8421 -11.8421 -11.8361 -11.8361 -11.8199 -11.8199 -11.8088 -11.8088
    -4.9370  -4.9370  -4.1185  -4.1185  -1.6822  -1.6822  -1.4725  -1.4725
    -1.1235  -1.1235  -1.0081  -1.0081  -0.7591  -0.7591  -0.7334  -0.7334
     4.7946   4.7946   5.1392   5.1392   5.3962   5.3963

          k =-0.5000 0.2555 0.2412 ( 26980 PWs)   bands (ev):

   -28.3275 -28.3275 -28.3257 -28.3257 -11.8675 -11.8675 -11.8523 -11.8523
   -11.8447 -11.8447 -11.8366 -11.8366 -11.8226 -11.8226 -11.8066 -11.8066
    -4.8861  -4.8861  -4.1666  -4.1666  -1.7184  -1.7184  -1.3928  -1.3928
    -1.1723  -1.1723  -0.9921  -0.9921  -0.8676  -0.8676  -0.6644  -0.6644
     4.8685   4.8685   5.1713   5.1714   5.3855   5.3855

          k =-0.5000 0.2555 0.4823 ( 26988 PWs)   bands (ev):

   -28.3271 -28.3271 -28.3261 -28.3261 -11.8683 -11.8683 -11.8515 -11.8515
   -11.8448 -11.8448 -11.8367 -11.8367 -11.8264 -11.8264 -11.8043 -11.8043
    -4.7817  -4.7817  -4.2686  -4.2686  -1.7196  -1.7196  -1.3135  -1.3135
    -1.2278  -1.2278  -1.0901  -1.0901  -0.8144  -0.8144  -0.6887  -0.6887
     5.0507   5.0508   5.1576   5.1576   5.5627   5.5629

          k =-0.5000 0.5109 0.0000 ( 27024 PWs)   bands (ev):

   -28.3272 -28.3272 -28.3259 -28.3259 -11.8602 -11.8602 -11.8563 -11.8563
   -11.8503 -11.8503 -11.8398 -11.8398 -11.8182 -11.8182 -11.8117 -11.8117
    -4.7398  -4.7398  -4.2462  -4.2462  -1.6690  -1.6690  -1.5144  -1.5144
    -1.3087  -1.3087  -0.9288  -0.9288  -0.9154  -0.9154  -0.7386  -0.7386
     4.9326   4.9326   5.3876   5.3876   5.6396   5.6396

          k =-0.5000 0.5109 0.2412 ( 27010 PWs)   bands (ev):

   -28.3271 -28.3271 -28.3260 -28.3260 -11.8687 -11.8687 -11.8574 -11.8574
   -11.8465 -11.8465 -11.8360 -11.8360 -11.8184 -11.8184 -11.8104 -11.8104
    -4.6987  -4.6987  -4.2584  -4.2584  -1.8164  -1.8164  -1.4997  -1.4997
    -1.2954  -1.2954  -0.9949  -0.9949  -0.8376  -0.8376  -0.6639  -0.6639
     4.9460   4.9460   5.3440   5.3440   5.7064   5.7067

          k =-0.5000 0.5109 0.4823 ( 27012 PWs)   bands (ev):

   -28.3269 -28.3269 -28.3263 -28.3263 -11.8742 -11.8742 -11.8654 -11.8654
   -11.8381 -11.8381 -11.8336 -11.8336 -11.8194 -11.8194 -11.8083 -11.8083
    -4.6174  -4.6174  -4.2932  -4.2932  -1.9343  -1.9343  -1.6426  -1.6426
    -1.1728  -1.1728  -1.0681  -1.0681  -0.7412  -0.7412  -0.6049  -0.6049
     5.0548   5.0548   5.2121   5.2121   6.0028   6.0031

          k =-0.5000-0.7664 0.0000 ( 27024 PWs)   bands (ev):

   -28.3265 -28.3265 -28.3265 -28.3265 -11.8583 -11.8583 -11.8583 -11.8583
   -11.8464 -11.8464 -11.8464 -11.8464 -11.8153 -11.8153 -11.8153 -11.8153
    -4.4778  -4.4778  -4.4778  -4.4778  -1.6147  -1.6147  -1.6147  -1.6147
    -1.1878  -1.1878  -1.1878  -1.1878  -0.8056  -0.8056  -0.8056  -0.8056
     5.1968   5.1968   5.1968   5.1968   6.3365   6.3365

          k =-0.5000-0.7664 0.2412 ( 27016 PWs)   bands (ev):

   -28.3265 -28.3265 -28.3265 -28.3265 -11.8662 -11.8662 -11.8662 -11.8662
   -11.8394 -11.8394 -11.8394 -11.8394 -11.8148 -11.8148 -11.8148 -11.8148
    -4.4565  -4.4565  -4.4565  -4.4565  -1.7467  -1.7467  -1.7467  -1.7467
    -1.1343  -1.1343  -1.1343  -1.1343  -0.7458  -0.7458  -0.7458  -0.7458
     5.1716   5.1716   5.1716   5.1716   6.2699   6.2699

          k =-0.5000-0.7664 0.4823 ( 27008 PWs)   bands (ev):

   -28.3265 -28.3265 -28.3265 -28.3265 -11.8739 -11.8739 -11.8739 -11.8739
   -11.8336 -11.8336 -11.8336 -11.8336 -11.8137 -11.8137 -11.8137 -11.8137
    -4.4206  -4.4206  -4.4206  -4.4206  -1.9104  -1.9104  -1.9104  -1.9104
    -1.0850  -1.0850  -1.0850  -1.0850  -0.6644  -0.6644  -0.6644  -0.6644
     5.1909   5.1909   5.1910   5.1910   6.1505   6.1506

     the Fermi energy is     2.5135 ev

!    total energy              =    -629.07405622 Ry
     estimated scf accuracy    <          7.9E-09 Ry
     smearing contrib. (-TS)   =       0.00000000 Ry
     internal energy E=F+TS    =    -629.07405622 Ry

     The total energy is F=E-TS. E is the sum of the following terms:
     one-electron contribution =    -109.43253436 Ry
     hartree contribution      =      71.29540142 Ry
     xc contribution           =     -66.56892132 Ry
     ewald contribution        =    -163.90252853 Ry
     one-center paw contrib.   =    -360.46547345 Ry

     convergence has been achieved in   7 iterations

     Forces acting on atoms (cartesian axes, Ry/au):

     atom    1 type  3   force =    -0.00010023   -0.00000000   -0.00017901
     atom    2 type  3   force =     0.00010023    0.00000000   -0.00017901
     atom    3 type  3   force =     0.00010023    0.00000000    0.00017901
     atom    4 type  3   force =    -0.00010023   -0.00000000    0.00017901
     atom    5 type  1   force =     0.00025727    0.00000000    0.00014073
     atom    6 type  1   force =    -0.00025727   -0.00000000    0.00014073
     atom    7 type  1   force =    -0.00025727    0.00000000   -0.00014073
     atom    8 type  1   force =     0.00025727    0.00000000   -0.00014073
     atom    9 type  2   force =     0.00037127    0.00033539    0.00013395
     atom   10 type  2   force =    -0.00037127    0.00033539    0.00013395
     atom   11 type  2   force =    -0.00037127   -0.00033539    0.00013395
     atom   12 type  2   force =    -0.00037127    0.00033539   -0.00013395
     atom   13 type  2   force =    -0.00037127   -0.00033539   -0.00013395
     atom   14 type  2   force =     0.00037127   -0.00033539   -0.00013395
     atom   15 type  2   force =     0.00037127    0.00033539   -0.00013395
     atom   16 type  2   force =     0.00037127   -0.00033539    0.00013395
     atom   17 type  2   force =     0.00008974    0.00000000   -0.00035531
     atom   18 type  2   force =    -0.00008974   -0.00000000   -0.00035531
     atom   19 type  2   force =    -0.00008974    0.00000000    0.00035531
     atom   20 type  2   force =     0.00008974    0.00000000    0.00035531
     atom   21 type  2   force =     0.00002136    0.00000000   -0.00025140
     atom   22 type  2   force =    -0.00002136   -0.00000000   -0.00025140
     atom   23 type  2   force =    -0.00002136    0.00000000    0.00025140
     atom   24 type  2   force =     0.00002136   -0.00000000    0.00025140

     Total force =     0.001858     Total SCF correction =     0.000108


     Computing stress (Cartesian axis) and pressure

          total   stress  (Ry/bohr**3)                   (kbar)     P=        5.06
   0.00003559   0.00000000   0.00000000            5.24        0.00        0.00
   0.00000000   0.00003249   0.00000000            0.00        4.78        0.00
   0.00000000   0.00000000   0.00003519            0.00        0.00        5.18


     BFGS Geometry Optimization
     Energy error            =      0.0E+00 Ry
     Gradient error          =      3.7E-04 Ry/Bohr
     Cell gradient error     =      5.2E+00 kbar

     number of scf cycles    =   1
     number of bfgs steps    =   0

     enthalpy           new  =    -629.0740562235 Ry

     new trust radius        =       0.0088287986 bohr
     new conv_thr            =       0.0000000100 Ry

     new unit-cell volume =   2467.40475 a.u.^3 (   365.63166 Ang^3 )
     density =      1.27362 g/cm^3

CELL_PARAMETERS (alat= 16.56925094)
   1.000889840   0.000000000   0.000000000
   0.000000000   0.652911270   0.000000000
   0.000000000   0.000000000   0.830025289

ATOMIC_POSITIONS (crystal)
K             0.1764541761        0.2500000000        0.1652654289
K             0.3235458239        0.7500000000        0.6652654289
K             0.8235458239        0.7500000000        0.8347345711
K             0.6764541761        0.2500000000        0.3347345711
Al            0.0688148450        0.2500000000        0.6791534225
Al            0.4311851550        0.7500000000        0.1791534225
Al            0.9311851550        0.7500000000        0.3208465775
Al            0.5688148450        0.2500000000        0.8208465775
H             0.0781056573        0.0193506471        0.8118482829
H             0.4218943427        0.5193506471        0.3118482829
H             0.4218943427        0.9806493529        0.3118482829
H             0.9218943427        0.5193506471        0.1881517171
H             0.9218943427        0.9806493529        0.1881517171
H             0.5781056573        0.4806493529        0.6881517171
H             0.5781056573        0.0193506471        0.6881517171
H             0.0781056573        0.4806493529        0.8118482829
H             0.0911132522        0.7500000000        0.4344933474
H             0.4088867478        0.2500000000        0.9344933474
H             0.9088867478        0.2500000000        0.5655066526
H             0.5911132522        0.7500000000        0.0655066526
H             0.2169202202        0.2500000000        0.5432910347
H             0.2830797798        0.7500000000        0.0432910347
H             0.7830797798        0.7500000000        0.4567089653
H             0.7169202202        0.2500000000        0.9567089653



     Writing config-only to output data dir ./kalh4.save/
     NEW-OLD atomic charge density approx. for the potential

     Check: negative core charge=   -0.000001
     extrapolated charge   64.16472, renormalised to   64.00000

     total cpu time spent up to now is       11.8 secs

     Self-consistent Calculation

     iteration #  1     ecut=    75.00 Ry     beta= 0.70
     Davidson diagonalization with overlap
     ethr =  1.00E-06,  avg # of iterations =  2.0

     total cpu time spent up to now is       12.6 secs

     total energy              =    -629.07385667 Ry
     estimated scf accuracy    <       0.00020224 Ry

     iteration #  2     ecut=    75.00 Ry     beta= 0.70
     Davidson diagonalization with overlap
     ethr =  3.16E-07,  avg # of iterations =  3.0

     total cpu time spent up to now is       13.4 secs

     total energy              =    -629.07427515 Ry
     estimated scf accuracy    <       0.00028748 Ry

     iteration #  3     ecut=    75.00 Ry     beta= 0.70
     Davidson diagonalization with overlap
     ethr =  3.16E-07,  avg # of iterations =  2.0

     total cpu time spent up to now is       14.1 secs

     total energy              =    -629.07425835 Ry
     estimated scf accuracy    <       0.00006267 Ry

     iteration #  4     ecut=    75.00 Ry     beta= 0.70
     Davidson diagonalization with overlap
     ethr =  9.79E-08,  avg # of iterations =  2.0

     total cpu time spent up to now is       14.8 secs

     total energy              =    -629.07426095 Ry
     estimated scf accuracy    <       0.00000748 Ry

     iteration #  5     ecut=    75.00 Ry     beta= 0.70
     Davidson diagonalization with overlap
     ethr =  1.17E-08,  avg # of iterations =  2.0

     total cpu time spent up to now is       15.6 secs

     total energy              =    -629.07426108 Ry
     estimated scf accuracy    <       0.00000097 Ry

     iteration #  6     ecut=    75.00 Ry     beta= 0.70
     Davidson diagonalization with overlap
     ethr =  1.52E-09,  avg # of iterations =  2.0

     total cpu time spent up to now is       16.4 secs

     End of self-consistent calculation

          k = 0.0000 0.0000 0.0000 ( 26965 PWs)   bands (ev):

   -28.3475 -28.3443 -28.3442 -28.3430 -11.8954 -11.8837 -11.8797 -11.8774
   -11.8770 -11.8585 -11.8503 -11.8491 -11.8355 -11.8263 -11.8205 -11.8074
    -5.3291  -4.5644  -4.2328  -4.0078  -1.8632  -1.8350  -1.2511  -1.2474
    -1.2180  -1.2061  -1.1950  -0.9168  -0.8102  -0.7523  -0.7223  -0.4941
     4.5406   5.0713   5.2278   5.3572   5.3902   5.4672

          k = 0.0000 0.0000 0.2410 ( 26960 PWs)   bands (ev):

   -28.3472 -28.3446 -28.3440 -28.3430 -11.8982 -11.8820 -11.8810 -11.8762
   -11.8685 -11.8571 -11.8555 -11.8479 -11.8400 -11.8299 -11.8186 -11.8081
    -5.2541  -4.6116  -4.2394  -4.0255  -1.8944  -1.7510  -1.4794  -1.1870
    -1.1615  -1.1344  -1.0649  -0.8822  -0.8671  -0.8502  -0.7732  -0.5327
     4.7116   4.8884   5.0899   5.3925   5.4526   5.5027

          k = 0.0000 0.0000 0.4819 ( 26960 PWs)   bands (ev):

   -28.3464 -28.3455 -28.3437 -28.3433 -11.8979 -11.8912 -11.8738 -11.8661
   -11.8643 -11.8537 -11.8536 -11.8522 -11.8498 -11.8397 -11.8142 -11.8104
    -5.0529  -4.7982  -4.1855  -4.0896  -1.8718  -1.7143  -1.5139  -1.1981
    -1.1078  -1.0823  -0.9837  -0.9683  -0.9341  -0.8896  -0.7792  -0.6405
     4.7298   4.8086   5.1227   5.4583   5.7324   5.7582

          k = 0.0000 0.2553 0.0000 ( 26958 PWs)   bands (ev):

   -28.3472 -28.3445 -28.3441 -28.3430 -11.8944 -11.8856 -11.8792 -11.8771
   -11.8729 -11.8576 -11.8563 -11.8516 -11.8375 -11.8283 -11.8195 -11.8081
    -5.2391  -4.5246  -4.2604  -4.0341  -1.8863  -1.7710  -1.5352  -1.3734
    -1.1840  -1.1484  -1.1292  -0.8967  -0.8223  -0.7744  -0.7336  -0.5469
     4.7426   4.9289   5.1991   5.2920   5.6101   5.7175

          k = 0.0000 0.2553 0.2410 ( 27007 PWs)   bands (ev):

   -28.3470 -28.3448 -28.3440 -28.3431 -11.8955 -11.8878 -11.8826 -11.8708
   -11.8689 -11.8642 -11.8533 -11.8508 -11.8392 -11.8305 -11.8178 -11.8088
    -5.1675  -4.5700  -4.2538  -4.0485  -1.8793  -1.8172  -1.4830  -1.3552
    -1.3003  -1.1527  -1.1061  -0.9686  -0.8602  -0.7104  -0.6465  -0.5811
     4.8393   4.9498   5.0549   5.3890   5.6248   5.6585

          k = 0.0000 0.2553 0.4819 ( 27013 PWs)   bands (ev):

   -28.3463 -28.3455 -28.3436 -28.3433 -11.8948 -11.8896 -11.8855 -11.8764
   -11.8638 -11.8565 -11.8558 -11.8454 -11.8445 -11.8363 -11.8143 -11.8109
    -4.9773  -4.7411  -4.1914  -4.1032  -1.8186  -1.7433  -1.6641  -1.5080
    -1.2552  -1.1836  -1.0830  -0.9209  -0.8278  -0.7212  -0.6246  -0.6062
     4.8615   4.8836   5.1973   5.5908   5.6857   5.9146

          k = 0.0000 0.5105 0.0000 ( 27000 PWs)   bands (ev):

   -28.3466 -28.3450 -28.3438 -28.3432 -11.8922 -11.8864 -11.8839 -11.8708
   -11.8694 -11.8642 -11.8571 -11.8531 -11.8439 -11.8346 -11.8167 -11.8101
    -4.9933  -4.4141  -4.3927  -4.1209  -1.9018  -1.7407  -1.6184  -1.5829
    -1.2833  -1.0867  -1.0241  -1.0068  -0.9935  -0.7788  -0.6822  -0.6576
     4.8431   5.2832   5.3473   5.4143   5.8821   5.9925

          k = 0.0000 0.5105 0.2410 ( 26994 PWs)   bands (ev):

   -28.3465 -28.3452 -28.3437 -28.3433 -11.8933 -11.8901 -11.8850 -11.8791
   -11.8704 -11.8607 -11.8570 -11.8458 -11.8436 -11.8328 -11.8159 -11.8106
    -4.9335  -4.4841  -4.3221  -4.1266  -1.9662  -1.8624  -1.5944  -1.5469
    -1.3151  -1.2825  -1.1391  -0.8711  -0.8417  -0.7770  -0.6812  -0.5403
     4.9701   5.2515   5.2947   5.3769   5.7762   5.8057

          k = 0.0000 0.5105 0.4819 ( 27005 PWs)   bands (ev):

   -28.3461 -28.3456 -28.3436 -28.3434 -11.8973 -11.8921 -11.8872 -11.8861
   -11.8724 -11.8652 -11.8485 -11.8425 -11.8373 -11.8328 -11.8140 -11.8121
    -4.7811  -4.6083  -4.2313  -4.1587  -2.0575  -1.9188  -1.6762  -1.5732
    -1.4321  -1.4008  -1.0251  -0.9042  -0.8048  -0.7039  -0.5478  -0.4731
     5.0813   5.1222   5.4222   5.5402   5.7953   5.8484

          k = 0.0000-0.7658 0.0000 ( 27022 PWs)   bands (ev):

   -28.3458 -28.3458 -28.3435 -28.3435 -11.8889 -11.8889 -11.8813 -11.8813
   -11.8637 -11.8637 -11.8536 -11.8536 -11.8442 -11.8442 -11.8132 -11.8132
    -4.6687  -4.6687  -4.2625  -4.2625  -1.8144  -1.8144  -1.6327  -1.6327
    -1.3239  -1.3239  -0.8886  -0.8886  -0.8853  -0.8853  -0.7656  -0.7656
     5.0898   5.0898   5.7427   5.7427   5.8850   5.8851

          k = 0.0000-0.7658 0.2410 ( 27018 PWs)   bands (ev):

   -28.3458 -28.3458 -28.3435 -28.3435 -11.8912 -11.8912 -11.8868 -11.8868
   -11.8644 -11.8644 -11.8519 -11.8519 -11.8382 -11.8382 -11.8132 -11.8132
    -4.6372  -4.6372  -4.2561  -4.2561  -1.9014  -1.9014  -1.7528  -1.7528
    -1.1710  -1.1710  -1.0789  -1.0789  -0.8326  -0.8326  -0.6077  -0.6077
     5.2139   5.2139   5.4352   5.4352   5.9329   5.9329

          k = 0.0000-0.7658 0.4819 ( 26988 PWs)   bands (ev):

   -28.3458 -28.3458 -28.3435 -28.3435 -11.9002 -11.9002 -11.8833 -11.8833
   -11.8731 -11.8731 -11.8442 -11.8442 -11.8331 -11.8331 -11.8133 -11.8133
    -4.5812  -4.5812  -4.2487  -4.2487  -2.1289  -2.1289  -1.6254  -1.6254
    -1.4236  -1.4236  -0.9962  -0.9962  -0.7311  -0.7311  -0.4967  -0.4967
     5.1637   5.1637   5.7108   5.7109   5.8298   5.8298

          k = 0.2498 0.0000 0.0000 ( 26958 PWs)   bands (ev):

   -28.3470 -28.3447 -28.3440 -28.3431 -11.8867 -11.8847 -11.8806 -11.8800
   -11.8634 -11.8610 -11.8495 -11.8480 -11.8380 -11.8278 -11.8263 -11.8151
    -5.2447  -4.7237  -4.1917  -4.0160  -1.8886  -1.6087  -1.4929  -1.2147
    -1.1985  -1.1480  -1.0619  -0.9762  -0.7975  -0.7520  -0.7353  -0.5718
     4.6463   4.8900   4.9664   5.2848   5.3563   5.5039

          k = 0.2498 0.0000 0.2410 ( 26965 PWs)   bands (ev):

   -28.3468 -28.3447 -28.3442 -28.3432 -11.8901 -11.8854 -11.8781 -11.8698
   -11.8639 -11.8624 -11.8528 -11.8482 -11.8415 -11.8340 -11.8231 -11.8141
    -5.1743  -4.7146  -4.2428  -4.0526  -1.8486  -1.6273  -1.4582  -1.1833
    -1.1807  -1.1653  -1.0197  -0.9596  -0.8391  -0.8262  -0.7846  -0.6144
     4.8114   4.8222   5.0328   5.2594   5.3658   5.3710

          k = 0.2498 0.0000 0.4819 ( 27010 PWs)   bands (ev):

   -28.3461 -28.3452 -28.3440 -28.3435 -11.8906 -11.8864 -11.8717 -11.8641
   -11.8631 -11.8566 -11.8547 -11.8520 -11.8511 -11.8440 -11.8183 -11.8149
    -4.9904  -4.7867  -4.2643  -4.1584  -1.7579  -1.6116  -1.4503  -1.1998
    -1.1034  -1.0851  -1.0341  -0.9839  -0.9287  -0.8970  -0.8280  -0.7256
     4.8005   4.9357   5.1998   5.4034   5.4559   5.5440

          k = 0.2498 0.2553 0.0000 ( 26956 PWs)   bands (ev):

   -28.3468 -28.3446 -28.3442 -28.3432 -11.8846 -11.8844 -11.8825 -11.8761
   -11.8639 -11.8632 -11.8554 -11.8481 -11.8400 -11.8283 -11.8266 -11.8153
    -5.1593  -4.6712  -4.2215  -4.0482  -1.8560  -1.6278  -1.5139  -1.4174
    -1.2875  -1.1683  -1.0183  -0.8542  -0.8199  -0.7980  -0.7563  -0.6261
     4.7943   4.8135   5.1573   5.1651   5.5912   5.6292

          k = 0.2498 0.2553 0.2410 ( 26994 PWs)   bands (ev):

   -28.3466 -28.3447 -28.3443 -28.3433 -11.8891 -11.8870 -11.8762 -11.8734
   -11.8646 -11.8637 -11.8556 -11.8498 -11.8407 -11.8322 -11.8233 -11.8150
    -5.0923  -4.6630  -4.2561  -4.0773  -1.8725  -1.6391  -1.5176  -1.3447
    -1.3268  -1.1538  -1.0407  -0.9738  -0.8678  -0.7489  -0.7019  -0.6137
     4.8635   4.8917   5.0772   5.2092   5.5073   5.6854

          k = 0.2498 0.2553 0.4819 ( 27014 PWs)   bands (ev):

   -28.3460 -28.3452 -28.3440 -28.3436 -11.8898 -11.8890 -11.8764 -11.8728
   -11.8669 -11.8608 -11.8532 -11.8472 -11.8447 -11.8387 -11.8190 -11.8159
    -4.9189  -4.7301  -4.2602  -4.1647  -1.8151  -1.6637  -1.5615  -1.4035
    -1.2947  -1.1920  -1.1023  -0.9542  -0.8334  -0.7235  -0.7091  -0.6417
     4.9141   4.9551   5.1826   5.4435   5.4739   5.7035

          k = 0.2498 0.5105 0.0000 ( 26987 PWs)   bands (ev):

   -28.3462 -28.3447 -28.3443 -28.3434 -11.8844 -11.8834 -11.8814 -11.8691
   -11.8673 -11.8665 -11.8626 -11.8472 -11.8465 -11.8341 -11.8235 -11.8167
    -4.9263  -4.5272  -4.3536  -4.1557  -1.8239  -1.7049  -1.5752  -1.4908
    -1.3450  -1.2098  -1.0557  -1.0055  -0.8645  -0.7715  -0.7706  -0.6987
     4.7995   5.2383   5.2789   5.4404   5.6888   5.7805

          k = 0.2498 0.5105 0.2410 ( 26997 PWs)   bands (ev):

   -28.3461 -28.3449 -28.3442 -28.3435 -11.8927 -11.8840 -11.8779 -11.8760
   -11.8734 -11.8640 -11.8541 -11.8477 -11.8423 -11.8327 -11.8225 -11.8173
    -4.8707  -4.5279  -4.3419  -4.1661  -1.9580  -1.7418  -1.5642  -1.5299
    -1.3878  -1.2625  -1.0948  -0.9187  -0.8528  -0.7612  -0.7161  -0.5915
     4.8941   5.0298   5.4002   5.4668   5.6863   5.7856

          k = 0.2498 0.5105 0.4819 ( 27009 PWs)   bands (ev):

   -28.3457 -28.3453 -28.3439 -28.3437 -11.8970 -11.8925 -11.8791 -11.8788
   -11.8738 -11.8666 -11.8471 -11.8425 -11.8382 -11.8334 -11.8203 -11.8185
    -4.7325  -4.5902  -4.2850  -4.2092  -2.0410  -1.9074  -1.5940  -1.5706
    -1.4618  -1.3247  -1.0304  -0.9303  -0.7834  -0.6987  -0.6096  -0.5328
     4.9914   5.0539   5.2929   5.5110   5.8001   6.0289

          k = 0.2498-0.7658 0.0000 ( 26984 PWs)   bands (ev):

   -28.3454 -28.3454 -28.3438 -28.3438 -11.8831 -11.8831 -11.8790 -11.8790
   -11.8646 -11.8646 -11.8566 -11.8566 -11.8420 -11.8420 -11.8197 -11.8197
    -4.6181  -4.6181  -4.3335  -4.3335  -1.7384  -1.7384  -1.6156  -1.6156
    -1.2888  -1.2888  -1.0245  -1.0245  -0.8831  -0.8831  -0.7441  -0.7441
     5.0269   5.0269   5.6039   5.6039   6.0979   6.0980

          k = 0.2498-0.7658 0.2410 ( 27006 PWs)   bands (ev):

   -28.3454 -28.3454 -28.3438 -28.3438 -11.8904 -11.8904 -11.8797 -11.8797
   -11.8670 -11.8670 -11.8508 -11.8508 -11.8379 -11.8379 -11.8200 -11.8200
    -4.5894  -4.5894  -4.3220  -4.3220  -1.8705  -1.8705  -1.6970  -1.6970
    -1.2223  -1.2223  -1.0697  -1.0697  -0.8124  -0.8124  -0.6581  -0.6581
     5.0330   5.0330   5.5616   5.5616   5.9207   5.9207

          k = 0.2498-0.7658 0.4819 ( 26984 PWs)   bands (ev):

   -28.3454 -28.3454 -28.3438 -28.3438 -11.8989 -11.8989 -11.8807 -11.8807
   -11.8708 -11.8708 -11.8433 -11.8433 -11.8331 -11.8331 -11.8207 -11.8207
    -4.5389  -4.5389  -4.3050  -4.3050  -2.0824  -2.0824  -1.6954  -1.6954
    -1.3532  -1.3532  -0.9717  -0.9717  -0.7208  -0.7208  -0.5684  -0.5684
     5.0575   5.0575   5.5677   5.5677   5.9156   5.9158

          k =-0.4996 0.0000 0.0000 ( 27002 PWs)   bands (ev):

   -28.3459 -28.3459 -28.3435 -28.3435 -11.8856 -11.8856 -11.8727 -11.8727
   -11.8592 -11.8592 -11.8481 -11.8481 -11.8399 -11.8399 -11.8255 -11.8255
    -5.0152  -5.0152  -4.0939  -4.0939  -1.7448  -1.7448  -1.2558  -1.2558
    -1.2067  -1.2067  -1.0116  -1.0116  -0.7666  -0.7666  -0.7051  -0.7051
     4.7893   4.7893   4.9316   4.9316   5.3376   5.3376

          k =-0.4996 0.0000 0.2410 ( 26982 PWs)   bands (ev):

   -28.3457 -28.3457 -28.3437 -28.3437 -11.8842 -11.8842 -11.8708 -11.8708
   -11.8578 -11.8578 -11.8500 -11.8500 -11.8462 -11.8462 -11.8230 -11.8230
    -4.9616  -4.9616  -4.1569  -4.1569  -1.6978  -1.6978  -1.2412  -1.2412
    -1.1743  -1.1743  -1.0372  -1.0372  -0.8121  -0.8121  -0.7561  -0.7561
     4.8341   4.8341   5.0737   5.0737   5.2415   5.2416

          k =-0.4996 0.0000 0.4819 ( 26976 PWs)   bands (ev):

   -28.3453 -28.3453 -28.3441 -28.3441 -11.8806 -11.8806 -11.8669 -11.8669
   -11.8560 -11.8560 -11.8557 -11.8557 -11.8539 -11.8539 -11.8208 -11.8208
    -4.8504  -4.8504  -4.2841  -4.2841  -1.5819  -1.5819  -1.2578  -1.2578
    -1.0935  -1.0935  -1.0629  -1.0629  -0.9137  -0.9137  -0.8561  -0.8561
     4.9583   4.9583   5.3492   5.3492   5.3659   5.3659

          k =-0.4996 0.2553 0.0000 ( 26940 PWs)   bands (ev):

   -28.3457 -28.3457 -28.3436 -28.3436 -11.8824 -11.8824 -11.8746 -11.8746
   -11.8595 -11.8595 -11.8537 -11.8537 -11.8377 -11.8377 -11.8266 -11.8266
    -4.9432  -4.9432  -4.1277  -4.1277  -1.6914  -1.6914  -1.4827  -1.4827
    -1.1344  -1.1344  -1.0188  -1.0188  -0.7708  -0.7708  -0.7454  -0.7454
     4.7804   4.7804   5.1252   5.1252   5.3789   5.3789

          k =-0.4996 0.2553 0.2410 ( 26980 PWs)   bands (ev):

   -28.3456 -28.3456 -28.3438 -28.3438 -11.8847 -11.8847 -11.8697 -11.8697
   -11.8622 -11.8622 -11.8541 -11.8541 -11.8403 -11.8403 -11.8244 -11.8244
    -4.8926  -4.8926  -4.1757  -4.1757  -1.7274  -1.7274  -1.4031  -1.4031
    -1.1830  -1.1830  -1.0032  -1.0032  -0.8786  -0.8786  -0.6765  -0.6765
     4.8539   4.8539   5.1572   5.1572   5.3685   5.3685

          k =-0.4996 0.2553 0.4819 ( 26988 PWs)   bands (ev):

   -28.3452 -28.3452 -28.3442 -28.3442 -11.8855 -11.8855 -11.8690 -11.8690
   -11.8624 -11.8624 -11.8542 -11.8542 -11.8441 -11.8441 -11.8222 -11.8222
    -4.7886  -4.7886  -4.2773  -4.2773  -1.7287  -1.7287  -1.3240  -1.3240
    -1.2383  -1.2383  -1.1009  -1.1009  -0.8256  -0.8256  -0.7007  -0.7007
     5.0355   5.0355   5.1432   5.1432   5.5439   5.5440

          k =-0.4996 0.5105 0.0000 ( 27024 PWs)   bands (ev):

   -28.3453 -28.3453 -28.3441 -28.3441 -11.8776 -11.8776 -11.8737 -11.8737
   -11.8678 -11.8678 -11.8573 -11.8573 -11.8359 -11.8359 -11.8295 -11.8295
    -4.7466  -4.7466  -4.2550  -4.2550  -1.6783  -1.6783  -1.5246  -1.5246
    -1.3191  -1.3191  -0.9399  -0.9399  -0.9265  -0.9265  -0.7504  -0.7504
     4.9182   4.9182   5.3716   5.3716   5.6235   5.6235

          k =-0.4996 0.5105 0.2410 ( 27010 PWs)   bands (ev):

   -28.3452 -28.3452 -28.3441 -28.3441 -11.8860 -11.8860 -11.8748 -11.8748
   -11.8640 -11.8640 -11.8535 -11.8535 -11.8361 -11.8361 -11.8282 -11.8282
    -4.7057  -4.7057  -4.2671  -4.2671  -1.8253  -1.8253  -1.5098  -1.5098
    -1.3057  -1.3057  -1.0058  -1.0058  -0.8489  -0.8489  -0.6761  -0.6761
     4.9313   4.9313   5.3289   5.3289   5.6895   5.6896

          k =-0.4996 0.5105 0.4819 ( 27012 PWs)   bands (ev):

   -28.3449 -28.3449 -28.3444 -28.3444 -11.8914 -11.8914 -11.8827 -11.8827
   -11.8556 -11.8556 -11.8512 -11.8512 -11.8371 -11.8371 -11.8261 -11.8261
    -4.6248  -4.6248  -4.3020  -4.3020  -1.9427  -1.9427  -1.6522  -1.6522
    -1.1833  -1.1833  -1.0788  -1.0788  -0.7528  -0.7528  -0.6173  -0.6173
     5.0399   5.0399   5.1974   5.1974   5.9837   5.9840

          k =-0.4996-0.7658 0.0000 ( 27024 PWs)   bands (ev):

   -28.3446 -28.3446 -28.3446 -28.3446 -11.8756 -11.8756 -11.8756 -11.8756
   -11.8639 -11.8639 -11.8639 -11.8639 -11.8331 -11.8331 -11.8331 -11.8331
    -4.4857  -4.4857  -4.4857  -4.4857  -1.6245  -1.6245  -1.6245  -1.6245
    -1.1983  -1.1983  -1.1983  -1.1983  -0.8171  -0.8171  -0.8171  -0.8171
     5.1817   5.1817   5.1817   5.1817   6.3186   6.3186

          k =-0.4996-0.7658 0.2410 ( 27016 PWs)   bands (ev):

   -28.3446 -28.3446 -28.3446 -28.3446 -11.8835 -11.8835 -11.8835 -11.8835
   -11.8570 -11.8570 -11.8570 -11.8570 -11.8325 -11.8325 -11.8325 -11.8325
    -4.4645  -4.4645  -4.4645  -4.4645  -1.7560  -1.7560  -1.7560  -1.7560
    -1.1448  -1.1448  -1.1448  -1.1448  -0.7576  -0.7576  -0.7576  -0.7576
     5.1565   5.1565   5.1565   5.1565   6.2516   6.2516

          k =-0.4996-0.7658 0.4819 ( 27008 PWs)   bands (ev):

   -28.3446 -28.3446 -28.3446 -28.3446 -11.8911 -11.8911 -11.8911 -11.8911
   -11.8512 -11.8512 -11.8512 -11.8512 -11.8315 -11.8315 -11.8315 -11.8315
    -4.4288  -4.4288  -4.4288  -4.4288  -1.9192  -1.9192  -1.9192  -1.9192
    -1.0956  -1.0956  -1.0956  -1.0956  -0.6766  -0.6766  -0.6766  -0.6766
     5.1760   5.1760   5.1760   5.1760   6.1311   6.1312

     the Fermi energy is     2.4955 ev

!    total energy              =    -629.07426133 Ry
     estimated scf accuracy    <          1.6E-09 Ry
     smearing contrib. (-TS)   =       0.00000000 Ry
     internal energy E=F+TS    =    -629.07426133 Ry

     The total energy is F=E-TS. E is the sum of the following terms:
     one-electron contribution =    -109.65885581 Ry
     hartree contribution      =      71.36899708 Ry
     xc contribution           =     -66.55873169 Ry
     ewald contribution        =    -163.76149088 Ry
     one-center paw contrib.   =    -360.46418002 Ry

     convergence has been achieved in   6 iterations

     Forces acting on atoms (cartesian axes, Ry/au):

     atom    1 type  3   force =    -0.00008550    0.00000000   -0.00017458
     atom    2 type  3   force =     0.00008550    0.00000000   -0.00017458
     atom    3 type  3   force =     0.00008550    0.00000000    0.00017458
     atom    4 type  3   force =    -0.00008550    0.00000000    0.00017458
     atom    5 type  1   force =     0.00022688    0.00000000    0.00002869
     atom    6 type  1   force =    -0.00022688    0.00000000    0.00002869
     atom    7 type  1   force =    -0.00022688    0.00000000   -0.00002869
     atom    8 type  1   force =     0.00022688    0.00000000   -0.00002869
     atom    9 type  2   force =     0.00033619    0.00068947   -0.00015818
     atom   10 type  2   force =    -0.00033619    0.00068947   -0.00015818
     atom   11 type  2   force =    -0.00033619   -0.00068947   -0.00015818
     atom   12 type  2   force =    -0.00033619    0.00068947    0.00015818
     atom   13 type  2   force =    -0.00033619   -0.00068947    0.00015818
     atom   14 type  2   force =     0.00033619   -0.00068947    0.00015818
     atom   15 type  2   force =     0.00033619    0.00068947    0.00015818
     atom   16 type  2   force =     0.00033619   -0.00068947   -0.00015818
     atom   17 type  2   force =    -0.00044690    0.00000000   -0.00066433
     atom   18 type  2   force =     0.00044690    0.00000000   -0.00066433
     atom   19 type  2   force =     0.00044690    0.00000000    0.00066433
     atom   20 type  2   force =    -0.00044690    0.00000000    0.00066433
     atom   21 type  2   force =    -0.00046819    0.00000000    0.00009852
     atom   22 type  2   force =     0.00046819    0.00000000    0.00009852
     atom   23 type  2   force =     0.00046819    0.00000000   -0.00009852
     atom   24 type  2   force =    -0.00046819    0.00000000   -0.00009852

     Total force =     0.002958     Total SCF correction =     0.000018


     Computing stress (Cartesian axis) and pressure

          total   stress  (Ry/bohr**3)                   (kbar)     P=        4.27
   0.00002940   0.00000000   0.00000000            4.32        0.00        0.00
   0.00000000   0.00002780   0.00000000            0.00        4.09        0.00
   0.00000000   0.00000000   0.00002979            0.00        0.00        4.38

     Energy error            =      2.1E-04 Ry
     Gradient error          =      6.9E-04 Ry/Bohr
     Cell gradient error     =      4.4E+00 kbar

     number of scf cycles    =   2
     number of bfgs steps    =   1

     enthalpy           old  =    -629.0740562235 Ry
     enthalpy           new  =    -629.0742613281 Ry

     CASE: enthalpy          _new < enthalpy          _old


     WARNING: bfgs curvature condition failed, Theta= 0.944
     new trust radius        =       0.0097155720 bohr
     new conv_thr            =            1.0E-10 Ry

     new unit-cell volume =   2474.46374 a.u.^3 (   366.67770 Ang^3 )
     density =      1.26999 g/cm^3

CELL_PARAMETERS (alat= 16.56925094)
   1.001860130   0.000000000   0.000000000
   0.000000000   0.653505937   0.000000000
   0.000000000   0.000000000   0.830837015

ATOMIC_POSITIONS (crystal)
K             0.1764474090        0.2500000000        0.1652491508
K             0.3235525910        0.7500000000        0.6652491508
K             0.8235525910        0.7500000000        0.8347508492
K             0.6764474090        0.2500000000        0.3347508492
Al            0.0688326940        0.2500000000        0.6791577629
Al            0.4311673060        0.7500000000        0.1791577629
Al            0.9311673060        0.7500000000        0.3208422371
Al            0.5688326940        0.2500000000        0.8208422371
H             0.0781319829        0.0194252963        0.8118379652
H             0.4218680171        0.5194252963        0.3118379652
H             0.4218680171        0.9805747037        0.3118379652
H             0.9218680171        0.5194252963        0.1881620348
H             0.9218680171        0.9805747037        0.1881620348
H             0.5781319829        0.4805747037        0.6881620348
H             0.5781319829        0.0194252963        0.6881620348
H             0.0781319829        0.4805747037        0.8118379652
H             0.0910854946        0.7500000000        0.4344362796
H             0.4089145054        0.2500000000        0.9344362796
H             0.9089145054        0.2500000000        0.5655637204
H             0.5910854946        0.7500000000        0.0655637204
H             0.2168902386        0.2500000000        0.5432949481
H             0.2831097614        0.7500000000        0.0432949481
H             0.7831097614        0.7500000000        0.4567050519
H             0.7168902386        0.2500000000        0.9567050519



     Writing config-only to output data dir ./kalh4.save/
     NEW-OLD atomic charge density approx. for the potential

     Check: negative core charge=   -0.000001
     extrapolated charge   64.18233, renormalised to   64.00000

     total cpu time spent up to now is       18.5 secs

     Self-consistent Calculation

     iteration #  1     ecut=    75.00 Ry     beta= 0.70
     Davidson diagonalization with overlap
     ethr =  1.00E-06,  avg # of iterations =  2.0

     total cpu time spent up to now is       19.2 secs

     total energy              =    -629.07395909 Ry
     estimated scf accuracy    <       0.00025329 Ry

     iteration #  2     ecut=    75.00 Ry     beta= 0.70
     Davidson diagonalization with overlap
     ethr =  3.96E-07,  avg # of iterations =  3.0

     total cpu time spent up to now is       20.1 secs

     total energy              =    -629.07447599 Ry
     estimated scf accuracy    <       0.00035573 Ry

     iteration #  3     ecut=    75.00 Ry     beta= 0.70
     Davidson diagonalization with overlap
     ethr =  3.96E-07,  avg # of iterations =  2.0

     total cpu time spent up to now is       20.7 secs

     total energy              =    -629.07444847 Ry
     estimated scf accuracy    <       0.00007693 Ry

     iteration #  4     ecut=    75.00 Ry     beta= 0.70
     Davidson diagonalization with overlap
     ethr =  1.20E-07,  avg # of iterations =  2.0

     total cpu time spent up to now is       21.4 secs

     total energy              =    -629.07445884 Ry
     estimated scf accuracy    <       0.00000275 Ry

     iteration #  5     ecut=    75.00 Ry     beta= 0.70
     Davidson diagonalization with overlap
     ethr =  4.30E-09,  avg # of iterations =  2.0

     total cpu time spent up to now is       22.1 secs

     total energy              =    -629.07445916 Ry
     estimated scf accuracy    <       0.00000023 Ry

     iteration #  6     ecut=    75.00 Ry     beta= 0.70
     Davidson diagonalization with overlap
     ethr =  3.57E-10,  avg # of iterations =  3.3

     total cpu time spent up to now is       23.0 secs

     total energy              =    -629.07445924 Ry
     estimated scf accuracy    <          4.2E-09 Ry

     iteration #  7     ecut=    75.00 Ry     beta= 0.70
     Davidson diagonalization with overlap
     ethr =  6.60E-12,  avg # of iterations =  5.0

     total cpu time spent up to now is       24.0 secs

     total energy              =    -629.07445925 Ry
     estimated scf accuracy    <          7.4E-09 Ry

     iteration #  8     ecut=    75.00 Ry     beta= 0.70
     Davidson diagonalization with overlap
     ethr =  6.60E-12,  avg # of iterations =  2.0

     total cpu time spent up to now is       24.7 secs

     total energy              =    -629.07445924 Ry
     estimated scf accuracy    <          9.0E-10 Ry

     iteration #  9     ecut=    75.00 Ry     beta= 0.70
     Davidson diagonalization with overlap
     ethr =  1.41E-12,  avg # of iterations =  2.0

     total cpu time spent up to now is       25.4 secs

     End of self-consistent calculation

          k = 0.0000 0.0000 0.0000 ( 26965 PWs)   bands (ev):

   -28.3679 -28.3647 -28.3646 -28.3635 -11.9146 -11.9034 -11.8992 -11.8970
   -11.8966 -11.8784 -11.8703 -11.8691 -11.8556 -11.8465 -11.8407 -11.8277
    -5.3347  -4.5739  -4.2433  -4.0196  -1.8726  -1.8456  -1.2634  -1.2583
    -1.2294  -1.2175  -1.2076  -0.9285  -0.8235  -0.7661  -0.7364  -0.5083
     4.5278   5.0564   5.2096   5.3393   5.3643   5.4517

          k = 0.0000 0.0000 0.2407 ( 26960 PWs)   bands (ev):

   -28.3676 -28.3651 -28.3645 -28.3635 -11.9174 -11.9014 -11.9007 -11.8958
   -11.8882 -11.8771 -11.8755 -11.8680 -11.8601 -11.8500 -11.8388 -11.8284
    -5.2602  -4.6208  -4.2500  -4.0373  -1.9035  -1.7618  -1.4902  -1.1986
    -1.1742  -1.1462  -1.0768  -0.8943  -0.8806  -0.8632  -0.7870  -0.5467
     4.6982   4.8736   5.0734   5.3728   5.4287   5.4869

          k = 0.0000 0.0000 0.4814 ( 26960 PWs)   bands (ev):

   -28.3669 -28.3659 -28.3642 -28.3638 -11.9171 -11.9105 -11.8935 -11.8858
   -11.8842 -11.8736 -11.8735 -11.8721 -11.8699 -11.8597 -11.8345 -11.8307
    -5.0599  -4.8064  -4.1966  -4.1011  -1.8809  -1.7242  -1.5252  -1.2103
    -1.1198  -1.0951  -0.9962  -0.9805  -0.9467  -0.9029  -0.7920  -0.6540
     4.7150   4.7930   5.1080   5.4424   5.7128   5.7376

          k = 0.0000 0.2550 0.0000 ( 26958 PWs)   bands (ev):

   -28.3677 -28.3649 -28.3645 -28.3635 -11.9136 -11.9052 -11.8987 -11.8967
   -11.8926 -11.8776 -11.8762 -11.8716 -11.8576 -11.8485 -11.8397 -11.8284
    -5.2452  -4.5342  -4.2709  -4.0456  -1.8956  -1.7818  -1.5462  -1.3842
    -1.1958  -1.1599  -1.1415  -0.9102  -0.8358  -0.7877  -0.7468  -0.5609
     4.7287   4.9148   5.1835   5.2732   5.5847   5.6965

          k = 0.0000 0.2550 0.2407 ( 27007 PWs)   bands (ev):

   -28.3674 -28.3652 -28.3644 -28.3636 -11.9147 -11.9073 -11.9021 -11.8905
   -11.8886 -11.8841 -11.8732 -11.8708 -11.8593 -11.8507 -11.8380 -11.8291
    -5.1740  -4.5793  -4.2644  -4.0600  -1.8885  -1.8275  -1.4940  -1.3667
    -1.3116  -1.1650  -1.1181  -0.9812  -0.8733  -0.7244  -0.6600  -0.5949
     4.8249   4.9352   5.0394   5.3700   5.6057   5.6358

          k = 0.0000 0.2550 0.4814 ( 27013 PWs)   bands (ev):

   -28.3668 -28.3659 -28.3641 -28.3638 -11.9140 -11.9090 -11.9050 -11.8961
   -11.8837 -11.8764 -11.8758 -11.8654 -11.8645 -11.8564 -11.8345 -11.8312
    -4.9846  -4.7496  -4.2025  -4.1146  -1.8279  -1.7537  -1.6741  -1.5191
    -1.2669  -1.1957  -1.0952  -0.9338  -0.8410  -0.7350  -0.6381  -0.6198
     4.8473   4.8688   5.1803   5.5729   5.6660   5.8945

          k = 0.0000 0.5101 0.0000 ( 27000 PWs)   bands (ev):

   -28.3670 -28.3655 -28.3643 -28.3637 -11.9115 -11.9060 -11.9034 -11.8905
   -11.8892 -11.8840 -11.8770 -11.8730 -11.8639 -11.8547 -11.8369 -11.8304
    -5.0006  -4.4239  -4.4027  -4.1319  -1.9113  -1.7509  -1.6291  -1.5938
    -1.2955  -1.0989  -1.0365  -1.0197  -1.0055  -0.7923  -0.6959  -0.6713
     4.8291   5.2663   5.3306   5.3949   5.8613   5.9727

          k = 0.0000 0.5101 0.2407 ( 26994 PWs)   bands (ev):

   -28.3669 -28.3656 -28.3642 -28.3637 -11.9127 -11.9095 -11.9044 -11.8987
   -11.8902 -11.8805 -11.8769 -11.8658 -11.8636 -11.8530 -11.8361 -11.8309
    -4.9411  -4.4938  -4.3324  -4.1376  -1.9756  -1.8720  -1.6049  -1.5580
    -1.3271  -1.2940  -1.1509  -0.8843  -0.8550  -0.7905  -0.6944  -0.5543
     4.9556   5.2334   5.2792   5.3572   5.7585   5.7863

          k = 0.0000 0.5101 0.4814 ( 27005 PWs)   bands (ev):

   -28.3665 -28.3660 -28.3641 -28.3639 -11.9167 -11.9115 -11.9066 -11.9056
   -11.8921 -11.8850 -11.8685 -11.8625 -11.8574 -11.8530 -11.8343 -11.8324
    -4.7895  -4.6175  -4.2420  -4.1697  -2.0665  -1.9283  -1.6864  -1.5836
    -1.4433  -1.4122  -1.0377  -0.9172  -0.8181  -0.7176  -0.5616  -0.4873
     5.0656   5.1068   5.4028   5.5208   5.7769   5.8315

          k = 0.0000-0.7651 0.0000 ( 27022 PWs)   bands (ev):

   -28.3662 -28.3662 -28.3640 -28.3640 -11.9083 -11.9083 -11.9009 -11.9009
   -11.8835 -11.8835 -11.8735 -11.8735 -11.8642 -11.8642 -11.8335 -11.8335
    -4.6775  -4.6775  -4.2728  -4.2728  -1.8244  -1.8244  -1.6436  -1.6436
    -1.3356  -1.3356  -0.9018  -0.9018  -0.8976  -0.8976  -0.7792  -0.7792
     5.0743   5.0743   5.7224   5.7224   5.8645   5.8645

          k = 0.0000-0.7651 0.2407 ( 27018 PWs)   bands (ev):

   -28.3662 -28.3662 -28.3640 -28.3640 -11.9107 -11.9107 -11.9062 -11.9062
   -11.8842 -11.8842 -11.8719 -11.8719 -11.8583 -11.8583 -11.8335 -11.8335
    -4.6462  -4.6462  -4.2664  -4.2664  -1.9110  -1.9110  -1.7631  -1.7631
    -1.1828  -1.1828  -1.0914  -1.0914  -0.8459  -0.8459  -0.6214  -0.6214
     5.1977   5.1977   5.4163   5.4163   5.9140   5.9140

          k = 0.0000-0.7651 0.4814 ( 26988 PWs)   bands (ev):

   -28.3662 -28.3662 -28.3640 -28.3640 -11.9196 -11.9196 -11.9028 -11.9028
   -11.8928 -11.8928 -11.8643 -11.8643 -11.8532 -11.8532 -11.8335 -11.8335
    -4.5908  -4.5908  -4.2590  -4.2590  -2.1376  -2.1376  -1.6361  -1.6361
    -1.4346  -1.4346  -1.0089  -1.0089  -0.7447  -0.7447  -0.5108  -0.5108
     5.1460   5.1460   5.6926   5.6926   5.8107   5.8107

          k = 0.2495 0.0000 0.0000 ( 26958 PWs)   bands (ev):

   -28.3675 -28.3652 -28.3645 -28.3636 -11.9062 -11.9041 -11.9003 -11.8996
   -11.8833 -11.8807 -11.8696 -11.8681 -11.8580 -11.8479 -11.8465 -11.8353
    -5.2508  -4.7323  -4.2024  -4.0277  -1.8985  -1.6194  -1.5040  -1.2263
    -1.2109  -1.1594  -1.0738  -0.9885  -0.8109  -0.7657  -0.7493  -0.5856
     4.6331   4.8746   4.9495   5.2697   5.3330   5.4841

          k = 0.2495 0.0000 0.2407 ( 26965 PWs)   bands (ev):

   -28.3672 -28.3652 -28.3647 -28.3637 -11.9094 -11.9049 -11.8978 -11.8895
   -11.8836 -11.8823 -11.8728 -11.8683 -11.8615 -11.8540 -11.8433 -11.8344
    -5.1807  -4.7233  -4.2533  -4.0642  -1.8583  -1.6380  -1.4697  -1.1951
    -1.1920  -1.1778  -1.0315  -0.9724  -0.8522  -0.8394  -0.7984  -0.6281
     4.7977   4.8073   5.0148   5.2405   5.3456   5.3555

          k = 0.2495 0.0000 0.4814 ( 27010 PWs)   bands (ev):

   -28.3665 -28.3657 -28.3645 -28.3640 -11.9099 -11.9058 -11.8914 -11.8840
   -11.8828 -11.8764 -11.8746 -11.8718 -11.8711 -11.8639 -11.8385 -11.8351
    -4.9977  -4.7950  -4.2747  -4.1695  -1.7678  -1.6223  -1.4618  -1.2119
    -1.1155  -1.0978  -1.0464  -0.9962  -0.9414  -0.9102  -0.8407  -0.7387
     4.7852   4.9196   5.1848   5.3824   5.4399   5.5239

          k = 0.2495 0.2550 0.0000 ( 26956 PWs)   bands (ev):

   -28.3672 -28.3651 -28.3647 -28.3637 -11.9040 -11.9038 -11.9022 -11.8957
   -11.8836 -11.8830 -11.8754 -11.8682 -11.8600 -11.8485 -11.8467 -11.8355
    -5.1658  -4.6800  -4.2321  -4.0597  -1.8657  -1.6388  -1.5251  -1.4282
    -1.2989  -1.1800  -1.0309  -0.8675  -0.8332  -0.8111  -0.7699  -0.6398
     4.7798   4.7986   5.1402   5.1492   5.5731   5.6074

          k = 0.2495 0.2550 0.2407 ( 26994 PWs)   bands (ev):

   -28.3670 -28.3651 -28.3648 -28.3638 -11.9086 -11.9064 -11.8958 -11.8931
   -11.8844 -11.8835 -11.8755 -11.8697 -11.8607 -11.8523 -11.8435 -11.8353
    -5.0991  -4.6719  -4.2666  -4.0887  -1.8821  -1.6497  -1.5286  -1.3563
    -1.3381  -1.1659  -1.0533  -0.9863  -0.8808  -0.7621  -0.7157  -0.6275
     4.8493   4.8758   5.0623   5.1903   5.4900   5.6655

          k = 0.2495 0.2550 0.4814 ( 27014 PWs)   bands (ev):

   -28.3664 -28.3657 -28.3645 -28.3641 -11.9092 -11.9084 -11.8960 -11.8925
   -11.8866 -11.8806 -11.8731 -11.8671 -11.8648 -11.8587 -11.8392 -11.8361
    -4.9265  -4.7387  -4.2708  -4.1758  -1.8249  -1.6740  -1.5722  -1.4148
    -1.3064  -1.2040  -1.1145  -0.9670  -0.8464  -0.7369  -0.7226  -0.6553
     4.8997   4.9400   5.1657   5.4260   5.4537   5.6828

          k = 0.2495 0.5101 0.0000 ( 26987 PWs)   bands (ev):

   -28.3667 -28.3652 -28.3647 -28.3639 -11.9038 -11.9030 -11.9009 -11.8889
   -11.8871 -11.8862 -11.8824 -11.8672 -11.8665 -11.8542 -11.8437 -11.8369
    -4.9338  -4.5365  -4.3637  -4.1665  -1.8337  -1.7153  -1.5864  -1.5018
    -1.3566  -1.2218  -1.0679  -1.0183  -0.8770  -0.7850  -0.7841  -0.7122
     4.7847   5.2221   5.2621   5.4212   5.6724   5.7613

          k = 0.2495 0.5101 0.2407 ( 26997 PWs)   bands (ev):

   -28.3665 -28.3653 -28.3646 -28.3640 -11.9121 -11.9035 -11.8975 -11.8956
   -11.8931 -11.8838 -11.8740 -11.8677 -11.8624 -11.8529 -11.8427 -11.8375
    -4.8785  -4.5373  -4.3521  -4.1769  -1.9674  -1.7521  -1.5751  -1.5410
    -1.3992  -1.2743  -1.1069  -0.9317  -0.8658  -0.7747  -0.7294  -0.6055
     4.8791   5.0132   5.3845   5.4480   5.6689   5.7659

          k = 0.2495 0.5101 0.4814 ( 27009 PWs)   bands (ev):

   -28.3662 -28.3657 -28.3644 -28.3642 -11.9163 -11.9120 -11.8987 -11.8984
   -11.8935 -11.8863 -11.8671 -11.8625 -11.8583 -11.8535 -11.8405 -11.8387
    -4.7410  -4.5995  -4.2955  -4.2200  -2.0500  -1.9170  -1.6049  -1.5814
    -1.4727  -1.3360  -1.0429  -0.9432  -0.7968  -0.7124  -0.6233  -0.5469
     4.9757   5.0381   5.2763   5.4933   5.7804   6.0083

          k = 0.2495-0.7651 0.0000 ( 26984 PWs)   bands (ev):

   -28.3659 -28.3659 -28.3643 -28.3643 -11.9026 -11.9026 -11.8987 -11.8987
   -11.8844 -11.8844 -11.8764 -11.8764 -11.8620 -11.8620 -11.8399 -11.8399
    -4.6271  -4.6271  -4.3435  -4.3435  -1.7487  -1.7487  -1.6265  -1.6265
    -1.3006  -1.3006  -1.0366  -1.0366  -0.8962  -0.8962  -0.7575  -0.7575
     5.0113   5.0113   5.5856   5.5856   6.0774   6.0774

          k = 0.2495-0.7651 0.2407 ( 27006 PWs)   bands (ev):

   -28.3659 -28.3659 -28.3643 -28.3643 -11.9099 -11.9099 -11.8993 -11.8993
   -11.8867 -11.8867 -11.8708 -11.8708 -11.8580 -11.8580 -11.8402 -11.8402
    -4.5986  -4.5986  -4.3321  -4.3321  -1.8803  -1.8803  -1.7077  -1.7077
    -1.2339  -1.2339  -1.0821  -1.0821  -0.8258  -0.8258  -0.6717  -0.6717
     5.0170   5.0170   5.5439   5.5439   5.9010   5.9010

          k = 0.2495-0.7651 0.4814 ( 26984 PWs)   bands (ev):

   -28.3659 -28.3659 -28.3643 -28.3643 -11.9182 -11.9182 -11.9003 -11.9003
   -11.8904 -11.8904 -11.8634 -11.8634 -11.8533 -11.8533 -11.8408 -11.8408
    -4.5486  -4.5486  -4.3152  -4.3152  -2.0913  -2.0913  -1.7060  -1.7060
    -1.3642  -1.3642  -0.9845  -0.9845  -0.7345  -0.7345  -0.5823  -0.5823
     5.0410   5.0410   5.5509   5.5509   5.8947   5.8948

          k =-0.4991 0.0000 0.0000 ( 27002 PWs)   bands (ev):

   -28.3664 -28.3664 -28.3640 -28.3640 -11.9050 -11.9050 -11.8924 -11.8924
   -11.8789 -11.8789 -11.8682 -11.8682 -11.8599 -11.8599 -11.8456 -11.8456
    -5.0223  -5.0223  -4.1051  -4.1051  -1.7551  -1.7551  -1.2673  -1.2673
    -1.2187  -1.2187  -1.0239  -1.0239  -0.7802  -0.7802  -0.7187  -0.7187
     4.7736   4.7736   4.9176   4.9176   5.3187   5.3187

          k =-0.4991 0.0000 0.2407 ( 26982 PWs)   bands (ev):

   -28.3662 -28.3662 -28.3642 -28.3642 -11.9037 -11.9037 -11.8906 -11.8906
   -11.8776 -11.8776 -11.8700 -11.8700 -11.8662 -11.8662 -11.8432 -11.8432
    -4.9690  -4.9690  -4.1678  -4.1678  -1.7084  -1.7084  -1.2530  -1.2530
    -1.1865  -1.1865  -1.0494  -1.0494  -0.8255  -0.8255  -0.7694  -0.7694
     4.8176   4.8176   5.0592   5.0592   5.2232   5.2232

          k =-0.4991 0.0000 0.4814 ( 26976 PWs)   bands (ev):

   -28.3658 -28.3658 -28.3646 -28.3646 -11.9001 -11.9001 -11.8867 -11.8867
   -11.8758 -11.8758 -11.8754 -11.8754 -11.8739 -11.8739 -11.8410 -11.8410
    -4.8585  -4.8585  -4.2944  -4.2944  -1.5929  -1.5929  -1.2698  -1.2698
    -1.1059  -1.1059  -1.0749  -1.0749  -0.9267  -0.9267  -0.8686  -0.8686
     4.9412   4.9412   5.3305   5.3305   5.3502   5.3502

          k =-0.4991 0.2550 0.0000 ( 26940 PWs)   bands (ev):

   -28.3662 -28.3662 -28.3641 -28.3641 -11.9019 -11.9019 -11.8943 -11.8943
   -11.8793 -11.8793 -11.8737 -11.8737 -11.8577 -11.8577 -11.8467 -11.8467
    -4.9506  -4.9506  -4.1388  -4.1388  -1.7017  -1.7017  -1.4940  -1.4940
    -1.1466  -1.1466  -1.0310  -1.0310  -0.7840  -0.7840  -0.7591  -0.7591
     4.7652   4.7652   5.1101   5.1101   5.3599   5.3599

          k =-0.4991 0.2550 0.2407 ( 26980 PWs)   bands (ev):

   -28.3660 -28.3660 -28.3643 -28.3643 -11.9042 -11.9042 -11.8895 -11.8895
   -11.8820 -11.8820 -11.8740 -11.8740 -11.8604 -11.8604 -11.8446 -11.8446
    -4.9003  -4.9003  -4.1866  -4.1866  -1.7376  -1.7376  -1.4145  -1.4145
    -1.1952  -1.1952  -1.0157  -1.0157  -0.8913  -0.8913  -0.6904  -0.6904
     4.8381   4.8381   5.1419   5.1419   5.3499   5.3499

          k =-0.4991 0.2550 0.4814 ( 26988 PWs)   bands (ev):

   -28.3657 -28.3657 -28.3647 -28.3647 -11.9050 -11.9050 -11.8887 -11.8887
   -11.8822 -11.8822 -11.8739 -11.8739 -11.8642 -11.8642 -11.8424 -11.8424
    -4.7969  -4.7969  -4.2878  -4.2878  -1.7389  -1.7389  -1.3358  -1.3358
    -1.2500  -1.2500  -1.1131  -1.1131  -0.8384  -0.8384  -0.7143  -0.7143
     5.0191   5.0191   5.1275   5.1275   5.5235   5.5235

          k =-0.4991 0.5101 0.0000 ( 27024 PWs)   bands (ev):

   -28.3657 -28.3657 -28.3645 -28.3645 -11.8972 -11.8972 -11.8933 -11.8933
   -11.8875 -11.8875 -11.8771 -11.8771 -11.8560 -11.8560 -11.8496 -11.8496
    -4.7549  -4.7549  -4.2655  -4.2655  -1.6886  -1.6886  -1.5359  -1.5359
    -1.3308  -1.3308  -0.9525  -0.9525  -0.9392  -0.9392  -0.7639  -0.7639
     4.9027   4.9027   5.3543   5.3543   5.6060   5.6060

          k =-0.4991 0.5101 0.2407 ( 27010 PWs)   bands (ev):

   -28.3656 -28.3656 -28.3646 -28.3646 -11.9055 -11.9055 -11.8944 -11.8944
   -11.8838 -11.8838 -11.8734 -11.8734 -11.8562 -11.8562 -11.8484 -11.8484
    -4.7142  -4.7142  -4.2776  -4.2776  -1.8351  -1.8351  -1.5211  -1.5211
    -1.3174  -1.3174  -1.0183  -1.0183  -0.8618  -0.8618  -0.6900  -0.6900
     4.9156   4.9156   5.3126   5.3126   5.6710   5.6710

          k =-0.4991 0.5101 0.4814 ( 27012 PWs)   bands (ev):

   -28.3654 -28.3654 -28.3648 -28.3648 -11.9108 -11.9108 -11.9023 -11.9023
   -11.8755 -11.8755 -11.8711 -11.8711 -11.8572 -11.8572 -11.8463 -11.8463
    -4.6338  -4.6338  -4.3125  -4.3125  -1.9520  -1.9520  -1.6629  -1.6629
    -1.1952  -1.1952  -1.0910  -1.0910  -0.7661  -0.7661  -0.6313  -0.6313
     5.0239   5.0239   5.1815   5.1815   5.9631   5.9632

          k =-0.4991-0.7651 0.0000 ( 27024 PWs)   bands (ev):

   -28.3651 -28.3651 -28.3651 -28.3651 -11.8953 -11.8953 -11.8953 -11.8953
   -11.8836 -11.8836 -11.8836 -11.8836 -11.8532 -11.8532 -11.8532 -11.8532
    -4.4951  -4.4951  -4.4951  -4.4951  -1.6354  -1.6354  -1.6354  -1.6354
    -1.2103  -1.2103  -1.2103  -1.2103  -0.8302  -0.8302  -0.8302  -0.8302
     5.1654   5.1654   5.1654   5.1654   6.2988   6.2988

          k =-0.4991-0.7651 0.2407 ( 27016 PWs)   bands (ev):

   -28.3651 -28.3651 -28.3651 -28.3651 -11.9031 -11.9031 -11.9031 -11.9031
   -11.8768 -11.8768 -11.8768 -11.8768 -11.8526 -11.8526 -11.8526 -11.8526
    -4.4741  -4.4741  -4.4741  -4.4741  -1.7664  -1.7664  -1.7664  -1.7664
    -1.1568  -1.1568  -1.1568  -1.1568  -0.7711  -0.7711  -0.7711  -0.7711
     5.1402   5.1402   5.1402   5.1402   6.2314   6.2314

          k =-0.4991-0.7651 0.4814 ( 27008 PWs)   bands (ev):

   -28.3651 -28.3651 -28.3651 -28.3651 -11.9106 -11.9106 -11.9106 -11.9106
   -11.8711 -11.8711 -11.8711 -11.8711 -11.8517 -11.8517 -11.8517 -11.8517
    -4.4387  -4.4387  -4.4387  -4.4387  -1.9288  -1.9288  -1.9288  -1.9288
    -1.1076  -1.1076  -1.1076  -1.1076  -0.6904  -0.6904  -0.6904  -0.6904
     5.1599   5.1599   5.1599   5.1599   6.1101   6.1101

     the Fermi energy is     2.4756 ev

!    total energy              =    -629.07445924 Ry
     estimated scf accuracy    <          5.9E-12 Ry
     smearing contrib. (-TS)   =       0.00000000 Ry
     internal energy E=F+TS    =    -629.07445924 Ry

     The total energy is F=E-TS. E is the sum of the following terms:
     one-electron contribution =    -109.91070494 Ry
     hartree contribution      =      71.45076210 Ry
     xc contribution           =     -66.54874212 Ry
     ewald contribution        =    -163.60280424 Ry
     one-center paw contrib.   =    -360.46297005 Ry

     convergence has been achieved in   9 iterations

     Forces acting on atoms (cartesian axes, Ry/au):

     atom    1 type  3   force =    -0.00007470    0.00000000   -0.00015893
     atom    2 type  3   force =     0.00007470   -0.00000000   -0.00015893
     atom    3 type  3   force =     0.00007470   -0.00000000    0.00015893
     atom    4 type  3   force =    -0.00007470    0.00000000    0.00015893
     atom    5 type  1   force =     0.00020175    0.00000000   -0.00002813
     atom    6 type  1   force =    -0.00020175    0.00000000   -0.00002813
     atom    7 type  1   force =    -0.00020175   -0.00000000    0.00002813
     atom    8 type  1   force =     0.00020175    0.00000000    0.00002813
     atom    9 type  2   force =     0.00030287    0.00099614   -0.00042239
     atom   10 type  2   force =    -0.00030287    0.00099614   -0.00042239
     atom   11 type  2   force =    -0.00030287   -0.00099614   -0.00042239
     atom   12 type  2   force =    -0.00030287    0.00099614    0.00042239
     atom   13 type  2   force =    -0.00030287   -0.00099614    0.00042239
     atom   14 type  2   force =     0.00030287   -0.00099614    0.00042239
     atom   15 type  2   force =     0.00030287    0.00099614    0.00042239
     atom   16 type  2   force =     0.00030287   -0.00099614   -0.00042239
     atom   17 type  2   force =    -0.00089035    0.00000000   -0.00091546
     atom   18 type  2   force =     0.00089035    0.00000000   -0.00091546
     atom   19 type  2   force =     0.00089035    0.00000000    0.00091546
     atom   20 type  2   force =    -0.00089035    0.00000000    0.00091546
     atom   21 type  2   force =    -0.00088334    0.00000000    0.00038614
     atom   22 type  2   force =     0.00088334   -0.00000000    0.00038614
     atom   23 type  2   force =     0.00088334    0.00000000   -0.00038614
     atom   24 type  2   force =    -0.00088334   -0.00000000   -0.00038614

     Total force =     0.004542     Total SCF correction =     0.000001


     Computing stress (Cartesian axis) and pressure

          total   stress  (Ry/bohr**3)                   (kbar)     P=        3.48
   0.00002342   0.00000000   0.00000000            3.45        0.00        0.00
   0.00000000   0.00002307   0.00000000            0.00        3.39        0.00
   0.00000000   0.00000000   0.00002443            0.00        0.00        3.59

     Energy error            =      2.0E-04 Ry
     Gradient error          =      1.0E-03 Ry/Bohr
     Cell gradient error     =      3.6E+00 kbar

     number of scf cycles    =   3
     number of bfgs steps    =   2

     enthalpy           old  =    -629.0742613281 Ry
     enthalpy           new  =    -629.0744592443 Ry

     CASE: enthalpy          _new < enthalpy          _old

     new trust radius        =       0.0145799310 bohr
     new conv_thr            =            1.0E-10 Ry

     new unit-cell volume =   2485.04430 a.u.^3 (   368.24557 Ang^3 )
     density =      1.26458 g/cm^3

CELL_PARAMETERS (alat= 16.56925094)
   1.003292812   0.000000000   0.000000000
   0.000000000   0.654404053   0.000000000
   0.000000000   0.000000000   0.832054604

ATOMIC_POSITIONS (crystal)
K             0.1764368367        0.2500000000        0.1652233026
K             0.3235631633        0.7500000000        0.6652233026
[...]
    -1.3543  -1.3094  -1.2445  -1.0765  -1.0606  -1.0536  -0.9900  -0.7478
     4.5467   4.7086   4.8758   5.1330   5.1520   5.3112

          k = 0.0000 0.0000 0.4753 ( 28120 PWs)   bands (ev):

   -28.6504 -28.6497 -28.6482 -28.6479 -12.1845 -12.1790 -12.1672 -12.1593
   -12.1588 -12.1505 -12.1483 -12.1473 -12.1472 -12.1368 -12.1150 -12.1118
    -5.1806  -4.9471  -4.3799  -4.2915  -2.0026  -1.8571  -1.6806  -1.3827
    -1.2911  -1.2766  -1.1731  -1.1521  -1.1325  -1.0979  -0.9734  -0.8465
     4.5503   4.6148   4.9391   5.2614   5.4725   5.5019

          k = 0.0000 0.2518 0.0000 ( 28156 PWs)   bands (ev):

   -28.6511 -28.6489 -28.6485 -28.6477 -12.1815 -12.1769 -12.1693 -12.1681
   -12.1647 -12.1536 -12.1523 -12.1484 -12.1352 -12.1277 -12.1193 -12.1097
    -5.3515  -4.6957  -4.4517  -4.2373  -2.0205  -1.9188  -1.6937  -1.5363
    -1.3626  -1.3200  -1.3096  -1.1058  -1.0309  -0.9831  -0.9319  -0.7622
     4.5680   4.7632   5.0005   5.0478   5.2864   5.4338

          k = 0.0000 0.2518 0.2377 ( 28170 PWs)   bands (ev):

   -28.6509 -28.6491 -28.6484 -28.6478 -12.1824 -12.1783 -12.1721 -12.1630
   -12.1620 -12.1587 -12.1496 -12.1478 -12.1367 -12.1295 -12.1180 -12.1103
    -5.2858  -4.7381  -4.4444  -4.2519  -2.0116  -1.9607  -1.6444  -1.5223
    -1.4688  -1.3394  -1.2855  -1.1620  -1.0620  -0.9283  -0.8540  -0.7924
     4.6598   4.7748   4.8673   5.1368   5.3646   5.3779

          k = 0.0000 0.2518 0.4753 ( 28185 PWs)   bands (ev):

   -28.6504 -28.6497 -28.6482 -28.6479 -12.1819 -12.1778 -12.1762 -12.1687
   -12.1580 -12.1517 -12.1515 -12.1422 -12.1416 -12.1345 -12.1150 -12.1122
    -5.1112  -4.8951  -4.3860  -4.3042  -1.9528  -1.8923  -1.8102  -1.6720
    -1.4303  -1.3617  -1.2683  -1.1172  -1.0321  -0.9372  -0.8315  -0.8167
     4.6908   4.7037   4.9867   5.3615   5.4261   5.6614

          k = 0.0000 0.5037 0.0000 ( 28142 PWs)   bands (ev):

   -28.6506 -28.6493 -28.6483 -28.6478 -12.1801 -12.1773 -12.1735 -12.1631
   -12.1631 -12.1574 -12.1524 -12.1493 -12.1405 -12.1332 -12.1170 -12.1114
    -5.1249  -4.5909  -4.5751  -4.3176  -2.0353  -1.8863  -1.7688  -1.7405
    -1.4680  -1.2680  -1.2068  -1.2060  -1.1721  -0.9886  -0.8904  -0.8662
     4.6786   5.0744   5.1273   5.1560   5.6167   5.7376

          k = 0.0000 0.5037 0.2377 ( 28154 PWs)   bands (ev):

   -28.6504 -28.6494 -28.6483 -28.6479 -12.1826 -12.1783 -12.1746 -12.1705
   -12.1633 -12.1549 -12.1525 -12.1428 -12.1405 -12.1317 -12.1163 -12.1119
    -5.0706  -4.6600  -4.5066  -4.3238  -2.0968  -1.9973  -1.7471  -1.7103
    -1.4886  -1.4524  -1.3142  -1.0736  -1.0474  -0.9863  -0.8823  -0.7565
     4.8004   5.0265   5.1010   5.1153   5.5468   5.5536

          k = 0.0000 0.5037 0.4753 ( 28184 PWs)   bands (ev):

   -28.6501 -28.6498 -28.6481 -28.6480 -12.1857 -12.1815 -12.1758 -12.1750
   -12.1651 -12.1591 -12.1450 -12.1399 -12.1356 -12.1318 -12.1148 -12.1131
    -4.9325  -4.7754  -4.4224  -4.3550  -2.1830  -2.0549  -1.8211  -1.7255
    -1.5953  -1.5635  -1.2168  -1.1034  -1.0103  -0.9178  -0.7602  -0.6934
     4.8890   4.9333   5.1811   5.2896   5.5544   5.6405

          k = 0.0000-0.7555 0.0000 ( 28162 PWs)   bands (ev):

   -28.6499 -28.6499 -28.6481 -28.6481 -12.1777 -12.1777 -12.1728 -12.1728
   -12.1575 -12.1575 -12.1486 -12.1486 -12.1414 -12.1414 -12.1141 -12.1141
    -4.8273  -4.8273  -4.4488  -4.4488  -1.9547  -1.9547  -1.7912  -1.7912
    -1.4936  -1.4936  -1.0927  -1.0927  -1.0669  -1.0669  -0.9742  -0.9742
     4.9028   4.9028   5.4661   5.4662   5.6303   5.6303

          k = 0.0000-0.7555 0.2377 ( 28176 PWs)   bands (ev):

   -28.6499 -28.6499 -28.6481 -28.6481 -12.1808 -12.1808 -12.1758 -12.1758
   -12.1582 -12.1582 -12.1475 -12.1475 -12.1364 -12.1364 -12.1141 -12.1141
    -4.8003  -4.8003  -4.4430  -4.4430  -2.0387  -2.0387  -1.8972  -1.8972
    -1.3440  -1.3440  -1.2694  -1.2694  -1.0365  -1.0365  -0.8178  -0.8178
     5.0189   5.0189   5.1865   5.1865   5.6873   5.6873

          k = 0.0000-0.7555 0.4753 ( 28200 PWs)   bands (ev):

   -28.6499 -28.6499 -28.6481 -28.6481 -12.1881 -12.1881 -12.1728 -12.1728
   -12.1655 -12.1655 -12.1415 -12.1415 -12.1321 -12.1321 -12.1141 -12.1141
    -4.7528  -4.7528  -4.4358  -4.4358  -2.2501  -2.2501  -1.7761  -1.7761
    -1.5832  -1.5832  -1.1915  -1.1915  -0.9425  -0.9425  -0.7121  -0.7121
     4.9409   4.9409   5.4796   5.4797   5.5880   5.5880

          k = 0.2466 0.0000 0.0000 ( 28156 PWs)   bands (ev):

   -28.6509 -28.6491 -28.6485 -28.6477 -12.1759 -12.1733 -12.1730 -12.1704
   -12.1587 -12.1541 -12.1469 -12.1457 -12.1351 -12.1266 -12.1259 -12.1157
    -5.3566  -4.8776  -4.3862  -4.2226  -2.0270  -1.7610  -1.6510  -1.3918
    -1.3875  -1.3226  -1.2386  -1.1567  -1.0062  -0.9663  -0.9537  -0.7853
     4.4855   4.6997   4.7615   5.0655   5.1030   5.4100

          k = 0.2466 0.0000 0.2377 ( 28154 PWs)   bands (ev):

   -28.6507 -28.6490 -28.6487 -28.6478 -12.1781 -12.1745 -12.1709 -12.1617
   -12.1579 -12.1567 -12.1496 -12.1459 -12.1381 -12.1319 -12.1228 -12.1150
    -5.2919  -4.8702  -4.4308  -4.2566  -1.9880  -1.7787  -1.6244  -1.3625
    -1.3558  -1.3509  -1.1941  -1.1536  -1.0443  -1.0295  -0.9994  -0.8246
     4.6425   4.6439   4.8046   5.0179   5.1082   5.1821

          k = 0.2466 0.0000 0.4753 ( 28156 PWs)   bands (ev):

   -28.6502 -28.6495 -28.6485 -28.6481 -12.1785 -12.1750 -12.1655 -12.1592
   -12.1563 -12.1513 -12.1508 -12.1483 -12.1468 -12.1402 -12.1186 -12.1157
    -5.1231  -4.9371  -4.4483  -4.3528  -1.9014  -1.7669  -1.6182  -1.3811
    -1.2886  -1.2783  -1.2202  -1.1675  -1.1280  -1.1035  -1.0201  -0.9260
     4.6143   4.7323   5.0125   5.1393   5.2576   5.2937

          k = 0.2466 0.2518 0.0000 ( 28174 PWs)   bands (ev):

   -28.6507 -28.6490 -28.6487 -28.6478 -12.1743 -12.1743 -12.1731 -12.1673
   -12.1584 -12.1569 -12.1516 -12.1452 -12.1369 -12.1277 -12.1256 -12.1159
    -5.2776  -4.8284  -4.4152  -4.2523  -1.9932  -1.7813  -1.6754  -1.5739
    -1.4594  -1.3464  -1.2113  -1.0570  -1.0261  -0.9967  -0.9678  -0.8369
     4.6143   4.6339   4.9442   4.9726   5.3458   5.3565

          k = 0.2466 0.2518 0.2377 ( 28151 PWs)   bands (ev):

   -28.6505 -28.6490 -28.6487 -28.6479 -12.1785 -12.1757 -12.1678 -12.1656
   -12.1587 -12.1575 -12.1513 -12.1463 -12.1378 -12.1308 -12.1229 -12.1157
    -5.2162  -4.8221  -4.4452  -4.2796  -2.0087  -1.7898  -1.6764  -1.5125
    -1.4961  -1.3380  -1.2333  -1.1616  -1.0677  -0.9515  -0.9179  -0.8267
     4.6902   4.6970   4.8951   4.9718   5.2839   5.4254

          k = 0.2466 0.2518 0.4753 ( 28148 PWs)   bands (ev):

   -28.6501 -28.6495 -28.6485 -28.6481 -12.1786 -12.1775 -12.1679 -12.1655
   -12.1604 -12.1556 -12.1486 -12.1434 -12.1419 -12.1364 -12.1192 -12.1165
    -5.0574  -4.8850  -4.4466  -4.3597  -1.9560  -1.8143  -1.7180  -1.5711
    -1.4691  -1.3688  -1.2863  -1.1476  -1.0351  -0.9340  -0.9161  -0.8530
     4.7391   4.7718   4.9716   5.2067   5.2329   5.4373

          k = 0.2466 0.5037 0.0000 ( 28190 PWs)   bands (ev):

   -28.6503 -28.6491 -28.6487 -28.6480 -12.1748 -12.1741 -12.1713 -12.1625
   -12.1606 -12.1595 -12.1569 -12.1438 -12.1425 -12.1327 -12.1229 -12.1171
    -5.0626  -4.6939  -4.5380  -4.3509  -1.9611  -1.8528  -1.7308  -1.6547
    -1.5159  -1.3894  -1.2398  -1.2010  -1.0513  -0.9802  -0.9795  -0.9054
     4.6241   5.0461   5.0637   5.1873   5.4845   5.5301

          k = 0.2466 0.5037 0.2377 ( 28171 PWs)   bands (ev):

   -28.6501 -28.6492 -28.6486 -28.6481 -12.1818 -12.1738 -12.1697 -12.1672
   -12.1655 -12.1580 -12.1494 -12.1438 -12.1397 -12.1316 -12.1220 -12.1176
    -5.0122  -4.6970  -4.5263  -4.3613  -2.0869  -1.8869  -1.7215  -1.6898
    -1.5563  -1.4348  -1.2748  -1.1180  -1.0526  -0.9706  -0.9203  -0.8074
     4.7133   4.8289   5.2057   5.2243   5.4634   5.5276

          k = 0.2466 0.5037 0.4753 ( 28181 PWs)   bands (ev):

   -28.6499 -28.6495 -28.6484 -28.6482 -12.1852 -12.1815 -12.1703 -12.1699
   -12.1653 -12.1596 -12.1437 -12.1397 -12.1364 -12.1322 -12.1202 -12.1187
    -4.8870  -4.7574  -4.4723  -4.4021  -2.1654  -2.0426  -1.7494  -1.7267
    -1.6211  -1.4895  -1.2197  -1.1260  -0.9906  -0.9108  -0.8226  -0.7524
     4.8000   4.8631   5.0885   5.2864   5.5475   5.7592

          k = 0.2466-0.7555 0.0000 ( 28178 PWs)   bands (ev):

   -28.6496 -28.6496 -28.6483 -28.6483 -12.1731 -12.1731 -12.1710 -12.1710
   -12.1582 -12.1582 -12.1509 -12.1509 -12.1393 -12.1393 -12.1197 -12.1197
    -4.7798  -4.7798  -4.5143  -4.5143  -1.8838  -1.8838  -1.7743  -1.7743
    -1.4619  -1.4619  -1.2051  -1.2051  -1.0849  -1.0849  -0.9496  -0.9496
     4.8404   4.8404   5.3644   5.3644   5.8350   5.8350

          k = 0.2466-0.7555 0.2377 ( 28186 PWs)   bands (ev):

   -28.6496 -28.6496 -28.6483 -28.6483 -12.1799 -12.1799 -12.1707 -12.1707
   -12.1598 -12.1598 -12.1465 -12.1465 -12.1360 -12.1360 -12.1199 -12.1199
    -4.7552  -4.7552  -4.5043  -4.5043  -2.0086  -2.0086  -1.8466  -1.8466
    -1.3945  -1.3945  -1.2558  -1.2558  -1.0188  -1.0188  -0.8671  -0.8671
     4.8400   4.8400   5.3335   5.3335   5.6660   5.6661

          k = 0.2466-0.7555 0.4753 ( 28192 PWs)   bands (ev):

   -28.6496 -28.6496 -28.6483 -28.6483 -12.1869 -12.1869 -12.1718 -12.1718
   -12.1623 -12.1623 -12.1406 -12.1406 -12.1321 -12.1321 -12.1204 -12.1204
    -4.7123  -4.7123  -4.4892  -4.4892  -2.2055  -2.2055  -1.8429  -1.8429
    -1.5164  -1.5164  -1.1661  -1.1661  -0.9332  -0.9332  -0.7825  -0.7825
     4.8554   4.8554   5.3574   5.3575   5.6504   5.6505

          k =-0.4932 0.0000 0.0000 ( 28218 PWs)   bands (ev):

   -28.6500 -28.6500 -28.6481 -28.6481 -12.1750 -12.1750 -12.1664 -12.1664
   -12.1522 -12.1522 -12.1458 -12.1458 -12.1365 -12.1365 -12.1251 -12.1251
    -5.1446  -5.1446  -4.2955  -4.2955  -1.8898  -1.8898  -1.4235  -1.4235
    -1.3899  -1.3899  -1.1964  -1.1964  -0.9799  -0.9799  -0.9163  -0.9163
     4.6016   4.6016   4.7605   4.7605   5.0901   5.0903

          k =-0.4932 0.0000 0.2377 ( 28152 PWs)   bands (ev):

   -28.6499 -28.6499 -28.6482 -28.6482 -12.1737 -12.1737 -12.1648 -12.1648
   -12.1511 -12.1511 -12.1473 -12.1473 -12.1420 -12.1420 -12.1228 -12.1228
    -5.0958  -5.0958  -4.3517  -4.3517  -1.8481  -1.8481  -1.4120  -1.4120
    -1.3593  -1.3593  -1.2202  -1.2202  -1.0218  -1.0218  -0.9617  -0.9617
     4.6342   4.6342   4.8946   4.8946   5.0098   5.0098

          k =-0.4932 0.0000 0.4753 ( 28176 PWs)   bands (ev):

   -28.6495 -28.6495 -28.6486 -28.6486 -12.1702 -12.1702 -12.1615 -12.1615
   -12.1506 -12.1506 -12.1505 -12.1505 -12.1494 -12.1494 -12.1209 -12.1209
    -4.9954  -4.9954  -4.4649  -4.4649  -1.7448  -1.7448  -1.4336  -1.4336
    -1.2830  -1.2830  -1.2424  -1.2424  -1.1163  -1.1163  -1.0484  -1.0484
     4.7436   4.7436   5.1129   5.1137   5.1705   5.1705

          k =-0.4932 0.2518 0.0000 ( 28154 PWs)   bands (ev):

   -28.6499 -28.6499 -28.6482 -28.6482 -12.1723 -12.1723 -12.1677 -12.1677
   -12.1534 -12.1534 -12.1492 -12.1492 -12.1350 -12.1350 -12.1261 -12.1261
    -5.0778  -5.0778  -4.3273  -4.3273  -1.8370  -1.8370  -1.6433  -1.6433
    -1.3213  -1.3213  -1.2029  -1.2029  -0.9760  -0.9760  -0.9576  -0.9576
     4.5982   4.5982   4.9421   4.9421   5.1292   5.1293

          k =-0.4932 0.2518 0.2377 ( 28146 PWs)   bands (ev):

   -28.6497 -28.6497 -28.6483 -28.6483 -12.1747 -12.1747 -12.1631 -12.1631
   -12.1564 -12.1564 -12.1486 -12.1486 -12.1377 -12.1377 -12.1241 -12.1241
    -5.0318  -5.0318  -4.3705  -4.3705  -1.8725  -1.8725  -1.5677  -1.5677
    -1.3669  -1.3669  -1.1934  -1.1934  -1.0721  -1.0721  -0.8928  -0.8928
     4.6623   4.6623   4.9711   4.9711   5.1275   5.1275

          k =-0.4932 0.2518 0.4753 ( 28152 PWs)   bands (ev):

   -28.6494 -28.6494 -28.6486 -28.6486 -12.1752 -12.1752 -12.1622 -12.1622
   -12.1567 -12.1567 -12.1482 -12.1482 -12.1415 -12.1415 -12.1221 -12.1221
    -4.9381  -4.9381  -4.4612  -4.4612  -1.8767  -1.8767  -1.5015  -1.5015
    -1.4101  -1.4101  -1.2830  -1.2830  -1.0238  -1.0238  -0.9145  -0.9145
     4.8325   4.8325   4.9519   4.9519   5.2815   5.2815

          k =-0.4932 0.5037 0.0000 ( 28174 PWs)   bands (ev):

   -28.6495 -28.6495 -28.6485 -28.6485 -12.1699 -12.1699 -12.1651 -12.1651
   -12.1614 -12.1614 -12.1511 -12.1511 -12.1337 -12.1337 -12.1284 -12.1284
    -4.8959  -4.8959  -4.4447  -4.4447  -1.8242  -1.8242  -1.6837  -1.6837
    -1.4961  -1.4961  -1.1326  -1.1326  -1.1190  -1.1190  -0.9587  -0.9587
     4.7322   4.7322   5.1527   5.1527   5.4002   5.4002

          k =-0.4932 0.5037 0.2377 ( 28176 PWs)   bands (ev):

   -28.6494 -28.6494 -28.6486 -28.6486 -12.1763 -12.1763 -12.1669 -12.1669
   -12.1576 -12.1576 -12.1481 -12.1481 -12.1341 -12.1341 -12.1273 -12.1273
    -4.8592  -4.8592  -4.4565  -4.4565  -1.9623  -1.9623  -1.6725  -1.6725
    -1.4779  -1.4779  -1.1934  -1.1934  -1.0469  -1.0469  -0.8914  -0.8914
     4.7402   4.7402   5.1303   5.1304   5.4466   5.4466

          k =-0.4932 0.5037 0.4753 ( 28176 PWs)   bands (ev):

   -28.6492 -28.6492 -28.6488 -28.6488 -12.1805 -12.1805 -12.1736 -12.1736
   -12.1504 -12.1504 -12.1459 -12.1459 -12.1354 -12.1354 -12.1256 -12.1256
    -4.7870  -4.7870  -4.4888  -4.4888  -2.0723  -2.0723  -1.8058  -1.8058
    -1.3601  -1.3601  -1.2607  -1.2607  -0.9595  -0.9595  -0.8367  -0.8367
     4.8442   4.8442   5.0040   5.0040   5.7207   5.7207

          k =-0.4932-0.7555 0.0000 ( 28200 PWs)   bands (ev):

   -28.6490 -28.6490 -28.6490 -28.6490 -12.1681 -12.1681 -12.1681 -12.1681
   -12.1568 -12.1568 -12.1568 -12.1568 -12.1313 -12.1313 -12.1313 -12.1313
    -4.6558  -4.6558  -4.6558  -4.6558  -1.7793  -1.7793  -1.7793  -1.7793
    -1.3753  -1.3753  -1.3753  -1.3753  -1.0189  -1.0189  -1.0189  -1.0189
     4.9827   4.9827   4.9827   4.9827   6.0526   6.0526

          k =-0.4932-0.7555 0.2377 ( 28192 PWs)   bands (ev):

   -28.6490 -28.6490 -28.6490 -28.6490 -12.1743 -12.1743 -12.1743 -12.1743
   -12.1513 -12.1513 -12.1513 -12.1513 -12.1310 -12.1310 -12.1310 -12.1310
    -4.6376  -4.6376  -4.6376  -4.6376  -1.9013  -1.9013  -1.9013  -1.9013
    -1.3238  -1.3238  -1.3238  -1.3238  -0.9651  -0.9651  -0.9651  -0.9651
     4.9582   4.9582   4.9583   4.9583   5.9842   5.9842

          k =-0.4932-0.7555 0.4753 ( 28180 PWs)   bands (ev):

   -28.6490 -28.6490 -28.6490 -28.6490 -12.1805 -12.1805 -12.1805 -12.1805
   -12.1463 -12.1463 -12.1463 -12.1463 -12.1304 -12.1304 -12.1304 -12.1304
    -4.6071  -4.6071  -4.6071  -4.6071  -2.0520  -2.0520  -2.0520  -2.0520
    -1.2766  -1.2766  -1.2766  -1.2766  -0.8906  -0.8906  -0.8906  -0.8906
     4.9788   4.9788   4.9788   4.9788   5.8626   5.8626

     the Fermi energy is     2.2249 ev

!    total energy              =    -629.07593479 Ry
     estimated scf accuracy    <          7.0E-12 Ry
     smearing contrib. (-TS)   =       0.00000000 Ry
     internal energy E=F+TS    =    -629.07593479 Ry

     The total energy is F=E-TS. E is the sum of the following terms:
     one-electron contribution =    -113.29455427 Ry
     hartree contribution      =      72.58080062 Ry
     xc contribution           =     -66.49117234 Ry
     ewald contribution        =    -161.40975089 Ry
     one-center paw contrib.   =    -360.46125791 Ry

     convergence has been achieved in   9 iterations

     Forces acting on atoms (cartesian axes, Ry/au):

     atom    1 type  3   force =     0.00014613   -0.00000000   -0.00013703
     atom    2 type  3   force =    -0.00014613    0.00000000   -0.00013703
     atom    3 type  3   force =    -0.00014613   -0.00000000    0.00013703
     atom    4 type  3   force =     0.00014613    0.00000000    0.00013703
     atom    5 type  1   force =    -0.00006357    0.00000000    0.00007623
     atom    6 type  1   force =     0.00006357    0.00000000    0.00007623
     atom    7 type  1   force =     0.00006357    0.00000000   -0.00007623
     atom    8 type  1   force =    -0.00006357    0.00000000   -0.00007623
     atom    9 type  2   force =     0.00013816   -0.00006531   -0.00011189
     atom   10 type  2   force =    -0.00013816   -0.00006531   -0.00011189
     atom   11 type  2   force =    -0.00013816    0.00006531   -0.00011189
     atom   12 type  2   force =    -0.00013816   -0.00006531    0.00011189
     atom   13 type  2   force =    -0.00013816    0.00006531    0.00011189
     atom   14 type  2   force =     0.00013816    0.00006531    0.00011189
     atom   15 type  2   force =     0.00013816   -0.00006531    0.00011189
     atom   16 type  2   force =     0.00013816    0.00006531   -0.00011189
     atom   17 type  2   force =     0.00025336    0.00000000   -0.00016370
     atom   18 type  2   force =    -0.00025336    0.00000000   -0.00016370
     atom   19 type  2   force =    -0.00025336    0.00000000    0.00016370
     atom   20 type  2   force =     0.00025336    0.00000000    0.00016370
     atom   21 type  2   force =    -0.00030123    0.00000000   -0.00040197
     atom   22 type  2   force =     0.00030123    0.00000000   -0.00040197
     atom   23 type  2   force =     0.00030123    0.00000000    0.00040197
     atom   24 type  2   force =    -0.00030123   -0.00000000    0.00040197

     Total force =     0.001364     Total SCF correction =     0.000002


     Computing stress (Cartesian axis) and pressure

          total   stress  (Ry/bohr**3)                   (kbar)     P=       -0.17
  -0.00000259   0.00000000   0.00000000           -0.38        0.00        0.00
   0.00000000   0.00000095   0.00000000            0.00        0.14        0.00
   0.00000000   0.00000000  -0.00000180            0.00        0.00       -0.26


     Writing all to output data dir ./kalh4.save/
 
     init_run     :      2.46s CPU      2.62s WALL (       2 calls)
     electrons    :     80.13s CPU     81.85s WALL (      11 calls)
     update_pot   :      4.43s CPU      4.47s WALL (       9 calls)
     forces       :      4.17s CPU      4.27s WALL (      11 calls)
     stress       :     10.99s CPU     11.04s WALL (      11 calls)

     Called by init_run:
     wfcinit      :      0.63s CPU      0.69s WALL (       2 calls)
     potinit      :      0.45s CPU      0.47s WALL (       2 calls)
     hinit0       :      0.70s CPU      0.72s WALL (       2 calls)

     Called by electrons:
     c_bands      :     62.85s CPU     63.94s WALL (      95 calls)
     sum_band     :     10.11s CPU     10.24s WALL (      95 calls)
     v_of_rho     :      1.14s CPU      1.16s WALL (     105 calls)
     newd         :      1.55s CPU      1.58s WALL (     105 calls)
     PAW_pot      :      4.95s CPU      5.02s WALL (     114 calls)
     mix_rho      :      0.29s CPU      0.30s WALL (      95 calls)

     Called by c_bands:
     init_us_2    :      1.94s CPU      1.98s WALL (    2007 calls)
     init_us_2:cp :      1.93s CPU      1.97s WALL (    2007 calls)
     cegterg      :     48.85s CPU     49.50s WALL (     855 calls)

     Called by *egterg:
     cdiaghg      :      5.69s CPU      5.76s WALL (    3605 calls)
     h_psi        :     33.40s CPU     33.95s WALL (    3713 calls)
     s_psi        :      2.67s CPU      2.69s WALL (    3713 calls)
     g_psi        :      0.18s CPU      0.18s WALL (    2840 calls)

     Called by h_psi:
     h_psi:calbec :      3.56s CPU      3.62s WALL (    3713 calls)
     vloc_psi     :     26.37s CPU     26.82s WALL (    3713 calls)
     add_vuspsi   :      3.13s CPU      3.15s WALL (    3713 calls)

     General routines
     calbec       :      5.10s CPU      5.21s WALL (    5144 calls)
     fft          :      0.95s CPU      0.96s WALL (    1628 calls)
     ffts         :      0.09s CPU      0.09s WALL (     200 calls)
     fftw         :     27.51s CPU     27.96s WALL (  222610 calls)
     interpolate  :      0.12s CPU      0.13s WALL (     105 calls)
 
     Parallel routines
 
     PWSCF        :   1m44.01s CPU   1m46.53s WALL

 
   This run was terminated on:  19:39:13  27Nov2023            

=------------------------------------------------------------------------------=
   JOB DONE.
=------------------------------------------------------------------------------=
Job execution finished at: Mon Nov 27 19:39:14 IST 2023
