==========================================
SLURM_CLUSTER_NAME = paramganga
SLURM_ARRAY_JOB_ID = 
SLURM_ARRAY_TASK_ID = 
SLURM_ARRAY_TASK_COUNT = 
SLURM_ARRAY_TASK_MAX = 
SLURM_ARRAY_TASK_MIN = 
SLURM_JOB_ACCOUNT = iitr
SLURM_JOB_ID = 174845
SLURM_JOB_NAME = 19280
SLURM_JOB_NODELIST = cn[214-216]
SLURM_JOB_USER = garima.iitr
SLURM_JOB_UID = 38339
SLURM_JOB_PARTITION = small
SLURM_TASK_PID = 20221
SLURM_SUBMIT_DIR = /home/garima.iitr/.cache/.es/compmat/na5ga3h14
SLURM_CPUS_ON_NODE = 48
SLURM_NTASKS = 144
SLURM_TASK_PID = 20221
==========================================
cn214
 
:: initializing oneAPI environment ...
   slurm_script: BASH_VERSION = 4.2.46(2)-release
   args: Using "$@" for setvars.sh arguments: 
:: advisor -- latest
:: ccl -- latest
:: clck -- latest
:: compiler -- latest
:: dal -- latest
:: debugger -- latest
:: dev-utilities -- latest
:: dnnl -- latest
:: dpcpp-ct -- latest
:: dpl -- latest
:: inspector -- latest
:: intelpython -- latest
:: ipp -- latest
:: ippcp -- latest
:: ipp -- latest
:: itac -- latest
:: mkl -- latest
:: mpi -- latest
:: tbb -- latest
:: vpl -- latest
:: vtune -- latest
:: oneAPI environment initialized ::
 
Job execution start: Fri Dec  1 09:21:08 IST 2023
Job submitted by garima.iitr
The job ID is:174845

     Program PWSCF v.7.1 starts on  1Dec2023 at  9:21:12 

     This program is part of the open-source Quantum ESPRESSO suite
     for quantum simulation of materials; please cite
         "P. Giannozzi et al., J. Phys.:Condens. Matter 21 395502 (2009);
         "P. Giannozzi et al., J. Phys.:Condens. Matter 29 465901 (2017);
         "P. Giannozzi et al., J. Chem. Phys. 152 154105 (2020);
          URL http://www.quantum-espresso.org", 
     in publications or presentations arising from this work. More details at
     http://www.quantum-espresso.org/quote

     Parallel version (MPI & OpenMP), running on     144 processor cores
     Number of MPI processes:               144
     Threads/MPI process:                     1

     MPI processes distributed on     3 nodes
     169546 MiB available memory on the printing compute node when the environment starts
 
     Reading input from na5ga3h14.in

     Current dimensions of program PWSCF are:
     Max number of different atomic species (ntypx) = 10
     Max number of k-points (npk) =  40000
     Max angular momentum in pseudopotentials (lmaxx) =  4
     file Ga.pbe-dn-kjpaw_psl.1.0.0.UPF: wavefunction(s)  4S renormalized

     IMPORTANT: XC functional enforced from input :
     Exchange-correlation= PBE
                           (   1   4   3   4   0   0   0)
     Any further DFT definition will be discarded
     Please, verify this is what you really want

     Message from routine setup:
     using ibrav=0 with symmetry is DISCOURAGED, use correct ibrav instead
 
     K-points division:     npool     =       2
     R & G space division:  proc/nbgrp/npool/nimage =      72
     Subspace diagonalization in iterative solution of the eigenvalue problem:
     a serial algorithm will be used

 
     Parallelization info
     --------------------
     sticks:   dense  smooth     PW     G-vecs:    dense   smooth      PW
     Min         130     104     27                14630    10466    1433
     Max         131     105     28                14641    10477    1442
     Sum        9425    7521   2009              1053871   753885  103605
 
     Using Slab Decomposition
 


     bravais-lattice index     =            0
     lattice parameter (alat)  =      17.7722  a.u.
     unit-cell volume          =    8592.5690 (a.u.)^3
     number of atoms/cell      =           44
     number of atomic types    =            3
     number of electrons       =       196.00
     number of Kohn-Sham states=          118
     kinetic-energy cutoff     =      75.0000  Ry
     charge density cutoff     =     375.0000  Ry
     scf convergence threshold =      1.0E-08
     mixing beta               =       0.7000
     number of iterations used =            8  plain     mixing
     energy convergence thresh.=      1.0E-04
     force convergence thresh. =      1.0E-03
     Exchange-correlation= PBE
                           (   1   4   3   4   0   0   0)
     nstep                     =           50


     celldm(1)=  17.772194  celldm(2)=   0.000000  celldm(3)=   0.000000
     celldm(4)=   0.000000  celldm(5)=   0.000000  celldm(6)=   0.000000

     crystal axes: (cart. coord. in units of alat)
               a(1) = (   1.000000   0.000000   0.000000 )  
               a(2) = (   0.000000   1.000000   0.000000 )  
               a(3) = (   0.000000   0.000000   1.530735 )  

     reciprocal axes: (cart. coord. in units 2 pi/alat)
               b(1) = (  1.000000  0.000000  0.000000 )  
               b(2) = (  0.000000  1.000000  0.000000 )  
               b(3) = (  0.000000  0.000000  0.653281 )  


     PseudoPot. # 1 for Ga read from file:
     /home/garima.iitr/.cache/.es/compmat/na5ga3h14/Ga.pbe-dn-kjpaw_psl.1.0.0.UPF
     MD5 check sum: 50ce49cbf7e0a40ad8623bf41840a268
     Pseudo is Projector augmented-wave + core cor, Zval = 13.0
     Generated using &quot;atomic&quot; code by A. Dal Corso  v.6.3
     Shape of augmentation charge: PSQ
     Using radial grid of 1205 points,  6 beta functions with: 
                l(1) =   0
                l(2) =   0
                l(3) =   1
                l(4) =   1
                l(5) =   2
                l(6) =   2
     Q(r) pseudized with 0 coefficients 


     PseudoPot. # 2 for Na read from file:
     /home/garima.iitr/.cache/.es/compmat/na5ga3h14/na_pbe_v1.5.uspp.F.UPF
     MD5 check sum: 44600605ef58000f06b90626533354dc
     Pseudo is Ultrasoft, Zval =  9.0
     Generated by new atomic code, or converted to UPF format
     Using radial grid of  819 points,  5 beta functions with: 
                l(1) =   0
                l(2) =   0
                l(3) =   1
                l(4) =   1
                l(5) =   2
     Q(r) pseudized with  8 coefficients,  rinner =    1.250   1.250   1.250
                                                       1.250   1.250

     PseudoPot. # 3 for H  read from file:
     /home/garima.iitr/.cache/.es/compmat/na5ga3h14/H.pbe-rrkjus_psl.1.0.0.UPF
     MD5 check sum: 3f4114867bd07edc7f1424d066fc1888
     Pseudo is Ultrasoft, Zval =  1.0
     Generated using &quot;atomic&quot; code by A. Dal Corso  v.6.3MaX
     Using radial grid of  929 points,  2 beta functions with: 
                l(1) =   0
                l(2) =   0
     Q(r) pseudized with 0 coefficients 


     atomic species   valence    mass     pseudopotential
        Ga            13.00    69.72300     Ga( 1.00)
        Na             9.00    22.98900     Na( 1.00)
        H              1.00     1.00750     H ( 1.00)

     16 Sym. Ops., with inversion, found ( 8 have fractional translation)



   Cartesian axes

     site n.     atom                  positions (alat units)
         1           Ga  tau(   1) = (   0.0000000   0.0000000   0.7653673  )
         2           Ga  tau(   2) = (   0.5000000   0.5000000   0.0000000  )
         3           Ga  tau(   3) = (   0.0000000   0.5000000   0.0000000  )
         4           Ga  tau(   4) = (   0.5000000   0.0000000   0.7653673  )
         5           Ga  tau(   5) = (   0.0000000   0.5000000   0.7653673  )
         6           Ga  tau(   6) = (   0.5000000   0.0000000   0.0000000  )
         7           Na  tau(   7) = (   0.0000000   0.0000000   0.0000000  )
         8           Na  tau(   8) = (   0.5000000   0.5000000   0.7653673  )
         9           Na  tau(   9) = (   0.7873500   0.2873500   0.3826836  )
        10           Na  tau(  10) = (   0.7126500   0.7873500   0.3826836  )
        11           Na  tau(  11) = (   0.2126500   0.7126500   0.3826836  )
        12           Na  tau(  12) = (   0.7126500   0.7873500   1.1480509  )
        13           Na  tau(  13) = (   0.2126500   0.7126500   1.1480509  )
        14           Na  tau(  14) = (   0.2873500   0.2126500   0.3826836  )
        15           Na  tau(  15) = (   0.2873500   0.2126500   1.1480509  )
        16           Na  tau(  16) = (   0.7873500   0.2873500   1.1480509  )
        17           H   tau(  17) = (   0.0438000   0.3200500   0.1798766  )
        18           H   tau(  18) = (   0.4562000   0.8200500   0.5854907  )
        19           H   tau(  19) = (   0.1799500   0.4562000   0.5854907  )
        20           H   tau(  20) = (   0.4562000   0.8200500   0.9452439  )
        21           H   tau(  21) = (   0.1799500   0.4562000   0.9452439  )
        22           H   tau(  22) = (   0.9562000   0.6799500   0.1798766  )
        23           H   tau(  23) = (   0.3200500   0.9562000   0.1798766  )
        24           H   tau(  24) = (   0.9562000   0.6799500   1.3508580  )
        25           H   tau(  25) = (   0.3200500   0.9562000   1.3508580  )
        26           H   tau(  26) = (   0.6799500   0.0438000   0.1798766  )
        27           H   tau(  27) = (   0.0438000   0.3200500   1.3508580  )
        28           H   tau(  28) = (   0.6799500   0.0438000   1.3508580  )
        29           H   tau(  29) = (   0.5438000   0.1799500   0.5854907  )
        30           H   tau(  30) = (   0.8200500   0.5438000   0.5854907  )
        31           H   tau(  31) = (   0.5438000   0.1799500   0.9452439  )
        32           H   tau(  32) = (   0.8200500   0.5438000   0.9452439  )
        33           H   tau(  33) = (   0.0000000   0.0000000   0.5043770  )
        34           H   tau(  34) = (   0.5000000   0.5000000   0.2609902  )
        35           H   tau(  35) = (   0.5000000   0.5000000   1.2697443  )
        36           H   tau(  36) = (   0.0000000   0.0000000   1.0263575  )
        37           H   tau(  37) = (   0.2523700   0.5751200   0.0000000  )
        38           H   tau(  38) = (   0.2476300   0.0751200   0.7653673  )
        39           H   tau(  39) = (   0.9248800   0.2476300   0.7653673  )
        40           H   tau(  40) = (   0.7476300   0.4248800   0.0000000  )
        41           H   tau(  41) = (   0.5751200   0.7476300   0.0000000  )
        42           H   tau(  42) = (   0.4248800   0.2523700   0.0000000  )
        43           H   tau(  43) = (   0.7523700   0.9248800   0.7653673  )
        44           H   tau(  44) = (   0.0751200   0.7523700   0.7653673  )

     number of k points=    30  Marzari-Vanderbilt smearing, width (Ry)=  0.0050
                       cart. coord. in units 2pi/alat
        k(    1) = (   0.0000000   0.0000000   0.0000000), wk =   0.0138889
        k(    2) = (   0.0000000   0.0000000   0.1633203), wk =   0.0277778
        k(    3) = (   0.0000000   0.0000000  -0.3266406), wk =   0.0138889
        k(    4) = (   0.0000000   0.1666667   0.0000000), wk =   0.0555556
        k(    5) = (   0.0000000   0.1666667   0.1633203), wk =   0.1111111
        k(    6) = (   0.0000000   0.1666667  -0.3266406), wk =   0.0555556
        k(    7) = (   0.0000000   0.3333333   0.0000000), wk =   0.0555556
        k(    8) = (   0.0000000   0.3333333   0.1633203), wk =   0.1111111
        k(    9) = (   0.0000000   0.3333333  -0.3266406), wk =   0.0555556
        k(   10) = (   0.0000000  -0.5000000   0.0000000), wk =   0.0277778
        k(   11) = (   0.0000000  -0.5000000   0.1633203), wk =   0.0555556
        k(   12) = (   0.0000000  -0.5000000  -0.3266406), wk =   0.0277778
        k(   13) = (   0.1666667   0.1666667   0.0000000), wk =   0.0555556
        k(   14) = (   0.1666667   0.1666667   0.1633203), wk =   0.1111111
        k(   15) = (   0.1666667   0.1666667  -0.3266406), wk =   0.0555556
        k(   16) = (   0.1666667   0.3333333   0.0000000), wk =   0.1111111
        k(   17) = (   0.1666667   0.3333333   0.1633203), wk =   0.2222222
        k(   18) = (   0.1666667   0.3333333  -0.3266406), wk =   0.1111111
        k(   19) = (   0.1666667  -0.5000000   0.0000000), wk =   0.0555556
        k(   20) = (   0.1666667  -0.5000000   0.1633203), wk =   0.1111111
        k(   21) = (   0.1666667  -0.5000000  -0.3266406), wk =   0.0555556
        k(   22) = (   0.3333333   0.3333333   0.0000000), wk =   0.0555556
        k(   23) = (   0.3333333   0.3333333   0.1633203), wk =   0.1111111
        k(   24) = (   0.3333333   0.3333333  -0.3266406), wk =   0.0555556
        k(   25) = (   0.3333333  -0.5000000   0.0000000), wk =   0.0555556
        k(   26) = (   0.3333333  -0.5000000   0.1633203), wk =   0.1111111
        k(   27) = (   0.3333333  -0.5000000  -0.3266406), wk =   0.0555556
        k(   28) = (  -0.5000000  -0.5000000   0.0000000), wk =   0.0138889
        k(   29) = (  -0.5000000  -0.5000000   0.1633203), wk =   0.0277778
        k(   30) = (  -0.5000000  -0.5000000  -0.3266406), wk =   0.0138889

     Dense  grid:  1053871 G-vectors     FFT dimensions: ( 120, 120, 180)

     Smooth grid:   753885 G-vectors     FFT dimensions: ( 100, 100, 150)

     Estimated max dynamical RAM per process >      88.26 MB

     Estimated total dynamical RAM >      12.16 GB

     Initial potential from superposition of free atoms

     starting charge     195.9191, renormalised to     196.0000
     Starting wfcs are  132 randomized atomic wfcs
     Checking if some PAW data can be deallocated... 

     total cpu time spent up to now is        5.3 secs

     Self-consistent Calculation

     iteration #  1     ecut=    75.00 Ry     beta= 0.70
     Davidson diagonalization with overlap
     ethr =  1.00E-02,  avg # of iterations =  2.3

     total cpu time spent up to now is       14.6 secs

     total energy              =   -2650.52767887 Ry
     estimated scf accuracy    <       2.20814831 Ry

     iteration #  2     ecut=    75.00 Ry     beta= 0.70
     Davidson diagonalization with overlap
     ethr =  1.13E-03,  avg # of iterations =  3.4

     total cpu time spent up to now is       25.2 secs

     total energy              =   -2650.97828024 Ry
     estimated scf accuracy    <       0.45368186 Ry

     iteration #  3     ecut=    75.00 Ry     beta= 0.70
     Davidson diagonalization with overlap
     c_bands:  1 eigenvalues not converged
     ethr =  2.31E-04,  avg # of iterations = 11.2

     total cpu time spent up to now is       40.9 secs

     total energy              =   -2651.11204974 Ry
     estimated scf accuracy    <       0.12116458 Ry

     iteration #  4     ecut=    75.00 Ry     beta= 0.70
     Davidson diagonalization with overlap
     ethr =  6.18E-05,  avg # of iterations =  9.0
     Minimization algorithm failed to find Fermi energy: reverting to bisection
     Possible cause: smearing is larger than the electronic band-gap.

     total cpu time spent up to now is       54.1 secs

     total energy              =   -2651.14830271 Ry
     estimated scf accuracy    <       0.03636823 Ry

     iteration #  5     ecut=    75.00 Ry     beta= 0.70
     Davidson diagonalization with overlap
     c_bands:  1 eigenvalues not converged
     ethr =  1.86E-05,  avg # of iterations =  7.7
     Minimization algorithm failed to find Fermi energy: reverting to bisection
     Possible cause: smearing is larger than the electronic band-gap.

     total cpu time spent up to now is       66.6 secs

     total energy              =   -2651.15408544 Ry
     estimated scf accuracy    <       0.00282549 Ry

     iteration #  6     ecut=    75.00 Ry     beta= 0.70
     Davidson diagonalization with overlap
     ethr =  1.44E-06,  avg # of iterations = 12.0
     Minimization algorithm failed to find Fermi energy: reverting to bisection
     Possible cause: smearing is larger than the electronic band-gap.

     total cpu time spent up to now is       92.4 secs

     total energy              =   -2651.15509907 Ry
     estimated scf accuracy    <       0.00766301 Ry

     iteration #  7     ecut=    75.00 Ry     beta= 0.70
     Davidson diagonalization with overlap
     ethr =  1.44E-06,  avg # of iterations =  3.0
     Minimization algorithm failed to find Fermi energy: reverting to bisection
     Possible cause: smearing is larger than the electronic band-gap.

     total cpu time spent up to now is      102.1 secs

     total energy              =   -2651.15598832 Ry
     estimated scf accuracy    <       0.00005283 Ry

     iteration #  8     ecut=    75.00 Ry     beta= 0.70
     Davidson diagonalization with overlap
     ethr =  2.70E-08,  avg # of iterations = 11.1
     Minimization algorithm failed to find Fermi energy: reverting to bisection
     Possible cause: smearing is larger than the electronic band-gap.

     total cpu time spent up to now is      122.9 secs

     total energy              =   -2651.15614963 Ry
     estimated scf accuracy    <       0.00005679 Ry

     iteration #  9     ecut=    75.00 Ry     beta= 0.70
     Davidson diagonalization with overlap
     ethr =  2.70E-08,  avg # of iterations =  6.0
     Minimization algorithm failed to find Fermi energy: reverting to bisection
     Possible cause: smearing is larger than the electronic band-gap.

     total cpu time spent up to now is      134.7 secs

     total energy              =   -2651.15615679 Ry
     estimated scf accuracy    <       0.00001306 Ry

     iteration # 10     ecut=    75.00 Ry     beta= 0.70
     Davidson diagonalization with overlap
     ethr =  6.66E-09,  avg # of iterations =  4.1
     Minimization algorithm failed to find Fermi energy: reverting to bisection
     Possible cause: smearing is larger than the electronic band-gap.

     total cpu time spent up to now is      144.9 secs

     total energy              =   -2651.15615833 Ry
     estimated scf accuracy    <       0.00000114 Ry

     iteration # 11     ecut=    75.00 Ry     beta= 0.70
     Davidson diagonalization with overlap
     ethr =  5.79E-10,  avg # of iterations =  7.9
     Minimization algorithm failed to find Fermi energy: reverting to bisection
     Possible cause: smearing is larger than the electronic band-gap.

     total cpu time spent up to now is      161.3 secs

     total energy              =   -2651.15615949 Ry
     estimated scf accuracy    <       0.00000123 Ry

     iteration # 12     ecut=    75.00 Ry     beta= 0.70
     Davidson diagonalization with overlap
     ethr =  5.79E-10,  avg # of iterations =  5.7
     Minimization algorithm failed to find Fermi energy: reverting to bisection
     Possible cause: smearing is larger than the electronic band-gap.

     total cpu time spent up to now is      172.2 secs

     total energy              =   -2651.15615962 Ry
     estimated scf accuracy    <       0.00000004 Ry

     iteration # 13     ecut=    75.00 Ry     beta= 0.70
     Davidson diagonalization with overlap
     ethr =  2.17E-11,  avg # of iterations =  8.9
     Minimization algorithm failed to find Fermi energy: reverting to bisection
     Possible cause: smearing is larger than the electronic band-gap.

     total cpu time spent up to now is      189.9 secs

     total energy              =   -2651.15615972 Ry
     estimated scf accuracy    <       0.00000001 Ry

     iteration # 14     ecut=    75.00 Ry     beta= 0.70
     Davidson diagonalization with overlap
     ethr =  7.54E-12,  avg # of iterations =  3.2
     Minimization algorithm failed to find Fermi energy: reverting to bisection
     Possible cause: smearing is larger than the electronic band-gap.

     total cpu time spent up to now is      199.6 secs

     End of self-consistent calculation

          k = 0.0000 0.0000 0.0000 ( 94279 PWs)   bands (ev):

   -55.0324 -55.0324 -54.5418 -54.5418 -54.5418 -54.5418 -54.5418 -54.5418
   -54.5418 -54.5418 -26.9435 -26.9435 -26.9236 -26.9236 -26.9236 -26.9236
   -26.4560 -26.4560 -26.4556 -26.4556 -26.4556 -26.4556 -26.4553 -26.4553
   -26.4403 -26.4403 -26.4398 -26.4398 -26.4398 -26.4398 -26.4394 -26.4394
   -26.4324 -26.4324 -26.4323 -26.4323 -26.4323 -26.4323 -26.4322 -26.4322
   -16.1650 -16.1650 -16.1648 -16.1648 -16.1578 -16.1578 -16.1578 -16.1578
   -16.1540 -16.1540 -16.1540 -16.1540 -16.1305 -16.1305 -16.1305 -16.1305
   -16.1292 -16.1292 -16.1292 -16.1292 -16.1289 -16.1289 -16.1264 -16.1264
   -16.1176 -16.1176 -16.1176 -16.1176 -16.1140 -16.1140  -6.7908  -6.7571
    -6.3419  -6.3157  -5.9148  -5.9097  -3.6654  -3.5280  -3.5280  -3.4684
    -3.4684  -3.0834  -3.0824  -3.0824  -3.0810  -3.0620  -3.0044  -3.0044
    -2.8515  -2.7958  -2.5974  -2.2955  -2.2955  -2.0876  -2.0876  -1.9964
    -1.9871  -1.8790  -1.7534  -1.4111  -0.6759  -0.3696  -0.3481  -0.1446
     0.9623   1.1680   1.1954   1.1954   1.4329   1.4329   1.5724   1.5792
     1.6425   1.6425   1.7181   1.7182   1.8308   1.8452

          k = 0.0000 0.0000 0.1633 ( 94303 PWs)   bands (ev):

   -55.0324 -55.0324 -54.5418 -54.5418 -54.5418 -54.5418 -54.5418 -54.5418
   -54.5418 -54.5418 -26.9435 -26.9435 -26.9236 -26.9236 -26.9236 -26.9236
   -26.4560 -26.4560 -26.4556 -26.4556 -26.4556 -26.4556 -26.4553 -26.4553
   -26.4403 -26.4403 -26.4398 -26.4398 -26.4398 -26.4398 -26.4394 -26.4394
   -26.4324 -26.4324 -26.4323 -26.4323 -26.4323 -26.4323 -26.4322 -26.4322
   -16.1650 -16.1650 -16.1648 -16.1648 -16.1578 -16.1578 -16.1578 -16.1578
   -16.1540 -16.1540 -16.1540 -16.1540 -16.1305 -16.1305 -16.1305 -16.1305
   -16.1292 -16.1292 -16.1292 -16.1292 -16.1289 -16.1289 -16.1264 -16.1264
   -16.1176 -16.1176 -16.1176 -16.1176 -16.1140 -16.1140  -6.7860  -6.7621
    -6.3381  -6.3196  -5.9141  -5.9105  -3.6090  -3.5193  -3.5193  -3.4771
    -3.4771  -3.2221  -3.0738  -3.0738  -3.0568  -3.0456  -3.0193  -3.0193
    -2.8962  -2.8462  -2.4170  -2.2616  -2.2616  -2.1153  -2.1153  -1.9831
    -1.9716  -1.8909  -1.7578  -1.4776  -0.6276  -0.3959  -0.3575  -0.2067
     1.0114   1.2117   1.2117   1.2588   1.3712   1.3712   1.5390   1.6597
     1.6597   1.6967   1.7084   1.7084   1.8328   1.8430

          k = 0.0000 0.0000-0.3266 ( 94282 PWs)   bands (ev):

   -55.0324 -55.0324 -54.5418 -54.5418 -54.5418 -54.5418 -54.5418 -54.5418
   -54.5418 -54.5418 -26.9435 -26.9435 -26.9236 -26.9236 -26.9236 -26.9236
   -26.4560 -26.4560 -26.4556 -26.4556 -26.4556 -26.4556 -26.4553 -26.4553
   -26.4403 -26.4403 -26.4398 -26.4398 -26.4398 -26.4398 -26.4394 -26.4394
   -26.4324 -26.4324 -26.4323 -26.4323 -26.4323 -26.4323 -26.4322 -26.4322
   -16.1650 -16.1650 -16.1648 -16.1648 -16.1578 -16.1578 -16.1578 -16.1578
   -16.1540 -16.1540 -16.1540 -16.1540 -16.1305 -16.1305 -16.1305 -16.1305
   -16.1292 -16.1292 -16.1292 -16.1292 -16.1289 -16.1289 -16.1264 -16.1264
   -16.1176 -16.1176 -16.1176 -16.1176 -16.1140 -16.1140  -6.7741  -6.7741
    -6.3290  -6.3290  -5.9124  -5.9124  -3.4982  -3.4982  -3.4982  -3.4982
    -3.4497  -3.4497  -3.0496  -3.0496  -3.0496  -3.0496  -2.9848  -2.9848
    -2.9530  -2.9530  -2.1855  -2.1855  -2.1855  -2.1855  -2.1444  -2.1444
    -1.9253  -1.9253  -1.6351  -1.6351  -0.5115  -0.5115  -0.3044  -0.3044
     1.1538   1.1538   1.2723   1.2723   1.2723   1.2723   1.6845   1.6845
     1.6845   1.6845   1.7685   1.7686   1.8378   1.8378

          k = 0.0000 0.1667 0.0000 ( 94283 PWs)   bands (ev):

   -55.0324 -55.0324 -54.5418 -54.5418 -54.5418 -54.5418 -54.5418 -54.5418
   -54.5418 -54.5418 -26.9435 -26.9435 -26.9236 -26.9236 -26.9236 -26.9236
   -26.4560 -26.4560 -26.4557 -26.4557 -26.4556 -26.4556 -26.4553 -26.4553
   -26.4403 -26.4403 -26.4399 -26.4399 -26.4398 -26.4398 -26.4395 -26.4395
   -26.4324 -26.4324 -26.4323 -26.4323 -26.4323 -26.4323 -26.4322 -26.4322
   -16.1650 -16.1650 -16.1648 -16.1648 -16.1578 -16.1578 -16.1578 -16.1578
   -16.1540 -16.1540 -16.1540 -16.1540 -16.1305 -16.1305 -16.1305 -16.1305
   -16.1292 -16.1292 -16.1292 -16.1292 -16.1289 -16.1289 -16.1264 -16.1264
   -16.1176 -16.1176 -16.1176 -16.1176 -16.1140 -16.1140  -6.7680  -6.7356
    -6.3530  -6.3262  -5.9518  -5.9482  -3.6371  -3.5085  -3.4792  -3.4049
    -3.3787  -3.1409  -3.1083  -3.0917  -3.0678  -3.0476  -3.0321  -3.0123
    -2.8684  -2.8163  -2.5240  -2.2847  -2.2695  -2.0909  -2.0870  -2.0396
    -1.9874  -1.9307  -1.6906  -1.4078  -0.7945  -0.5770  -0.3846  -0.3022
     0.9768   1.1911   1.2418   1.3214   1.4122   1.4595   1.4914   1.6106
     1.6877   1.7108   1.7482   1.8044   1.8880   2.0485

          k = 0.0000 0.1667 0.1633 ( 94249 PWs)   bands (ev):

   -55.0324 -55.0324 -54.5418 -54.5418 -54.5418 -54.5418 -54.5418 -54.5418
   -54.5418 -54.5418 -26.9435 -26.9435 -26.9236 -26.9236 -26.9236 -26.9236
   -26.4560 -26.4560 -26.4557 -26.4557 -26.4556 -26.4556 -26.4553 -26.4553
   -26.4403 -26.4403 -26.4399 -26.4399 -26.4398 -26.4398 -26.4395 -26.4395
   -26.4324 -26.4324 -26.4323 -26.4323 -26.4323 -26.4323 -26.4322 -26.4322
   -16.1650 -16.1650 -16.1648 -16.1648 -16.1578 -16.1578 -16.1578 -16.1578
   -16.1540 -16.1540 -16.1540 -16.1540 -16.1305 -16.1305 -16.1305 -16.1305
   -16.1292 -16.1292 -16.1292 -16.1292 -16.1289 -16.1289 -16.1264 -16.1264
   -16.1176 -16.1176 -16.1176 -16.1176 -16.1140 -16.1140  -6.7633  -6.7404
    -6.3491  -6.3302  -5.9514  -5.9488  -3.5839  -3.5019  -3.4785  -3.4047
    -3.3873  -3.2182  -3.1103  -3.1028  -3.0669  -3.0516  -3.0322  -3.0079
    -2.8911  -2.8684  -2.3888  -2.2578  -2.2298  -2.1352  -2.1173  -2.0185
    -1.9711  -1.9403  -1.6838  -1.4611  -0.7482  -0.5850  -0.4144  -0.3517
     1.0199   1.2262   1.2363   1.3274   1.3635   1.3885   1.5413   1.6867
     1.6898   1.7410   1.7653   1.7892   1.9334   2.0474

          k = 0.0000 0.1667-0.3266 ( 94230 PWs)   bands (ev):

   -55.0324 -55.0324 -54.5418 -54.5418 -54.5418 -54.5418 -54.5418 -54.5418
   -54.5418 -54.5418 -26.9435 -26.9435 -26.9236 -26.9236 -26.9236 -26.9236
   -26.4560 -26.4560 -26.4557 -26.4557 -26.4556 -26.4556 -26.4553 -26.4553
   -26.4403 -26.4403 -26.4399 -26.4399 -26.4398 -26.4398 -26.4395 -26.4395
   -26.4324 -26.4324 -26.4323 -26.4323 -26.4323 -26.4323 -26.4322 -26.4322
   -16.1650 -16.1650 -16.1648 -16.1648 -16.1578 -16.1578 -16.1578 -16.1578
   -16.1540 -16.1540 -16.1540 -16.1540 -16.1305 -16.1305 -16.1305 -16.1305
   -16.1292 -16.1292 -16.1292 -16.1292 -16.1289 -16.1289 -16.1264 -16.1264
   -16.1176 -16.1176 -16.1176 -16.1176 -16.1140 -16.1140  -6.7520  -6.7520
    -6.3398  -6.3398  -5.9502  -5.9502  -3.4906  -3.4906  -3.4348  -3.4348
    -3.3901  -3.3901  -3.0946  -3.0946  -3.0607  -3.0607  -2.9794  -2.9794
    -2.9472  -2.9472  -2.2313  -2.2313  -2.1854  -2.1854  -2.0871  -2.0871
    -1.9684  -1.9684  -1.5872  -1.5872  -0.6459  -0.6459  -0.4227  -0.4227
     1.1502   1.1502   1.2686   1.2686   1.3179   1.3179   1.6782   1.6782
     1.7556   1.7556   1.8251   1.8251   2.0284   2.0284

          k = 0.0000 0.3333 0.0000 ( 94253 PWs)   bands (ev):

   -55.0324 -55.0324 -54.5418 -54.5418 -54.5418 -54.5418 -54.5418 -54.5418
   -54.5418 -54.5418 -26.9435 -26.9435 -26.9236 -26.9236 -26.9236 -26.9236
   -26.4559 -26.4559 -26.4557 -26.4557 -26.4555 -26.4555 -26.4554 -26.4554
   -26.4402 -26.4402 -26.4399 -26.4399 -26.4397 -26.4397 -26.4395 -26.4395
   -26.4324 -26.4324 -26.4323 -26.4323 -26.4323 -26.4323 -26.4322 -26.4322
   -16.1649 -16.1649 -16.1647 -16.1647 -16.1578 -16.1578 -16.1578 -16.1577
   -16.1540 -16.1540 -16.1540 -16.1540 -16.1305 -16.1305 -16.1305 -16.1305
   -16.1292 -16.1292 -16.1292 -16.1292 -16.1290 -16.1290 -16.1264 -16.1264
   -16.1176 -16.1176 -16.1176 -16.1176 -16.1140 -16.1140  -6.7098  -6.6845
    -6.3856  -6.3620  -6.0198  -6.0191  -3.5553  -3.4742  -3.4574  -3.2781
    -3.2712  -3.2356  -3.1533  -3.0879  -3.0273  -3.0039  -2.9360  -2.9247
    -2.9130  -2.8701  -2.4013  -2.2584  -2.2332  -2.2116  -2.1042  -2.0944
    -2.0867  -2.0345  -1.5071  -1.3789  -1.0677  -0.9446  -0.4789  -0.4596
     1.0489   1.2396   1.3409   1.3579   1.3635   1.5451   1.5486   1.6426
     1.6906   1.7079   1.7546   1.7958   2.1005   2.2754

          k = 0.0000 0.3333 0.1633 ( 94281 PWs)   bands (ev):

   -55.0324 -55.0324 -54.5418 -54.5418 -54.5418 -54.5418 -54.5418 -54.5418
   -54.5418 -54.5418 -26.9435 -26.9435 -26.9236 -26.9236 -26.9236 -26.9236
   -26.4559 -26.4559 -26.4557 -26.4557 -26.4555 -26.4555 -26.4554 -26.4554
   -26.4402 -26.4402 -26.4399 -26.4399 -26.4397 -26.4397 -26.4395 -26.4395
   -26.4324 -26.4324 -26.4323 -26.4323 -26.4323 -26.4323 -26.4322 -26.4322
   -16.1649 -16.1649 -16.1647 -16.1647 -16.1578 -16.1578 -16.1578 -16.1577
   -16.1540 -16.1540 -16.1540 -16.1540 -16.1305 -16.1305 -16.1305 -16.1305
   -16.1292 -16.1292 -16.1292 -16.1292 -16.1290 -16.1290 -16.1264 -16.1264
   -16.1176 -16.1176 -16.1176 -16.1176 -16.1140 -16.1140  -6.7061  -6.6881
    -6.3824  -6.3657  -6.0198  -6.0193  -3.5155  -3.4733  -3.4516  -3.3123
    -3.2385  -3.2113  -3.1525  -3.1358  -3.0762  -2.9980  -2.9729  -2.9213
    -2.9128  -2.8771  -2.3486  -2.2500  -2.2051  -2.2015  -2.1567  -2.1368
    -2.0637  -1.9734  -1.4968  -1.4016  -1.0400  -0.9522  -0.5062  -0.4899
     1.0683   1.2328   1.2680   1.3032   1.4315   1.4509   1.6207   1.6686
     1.7226   1.7436   1.7618   1.8818   2.0990   2.3744

          k = 0.0000 0.3333-0.3266 ( 94162 PWs)   bands (ev):

   -55.0324 -55.0324 -54.5418 -54.5418 -54.5418 -54.5418 -54.5418 -54.5418
   -54.5418 -54.5418 -26.9435 -26.9435 -26.9236 -26.9236 -26.9236 -26.9236
   -26.4559 -26.4559 -26.4557 -26.4557 -26.4555 -26.4555 -26.4554 -26.4554
   -26.4402 -26.4402 -26.4399 -26.4399 -26.4397 -26.4397 -26.4395 -26.4395
   -26.4324 -26.4324 -26.4323 -26.4323 -26.4323 -26.4323 -26.4322 -26.4322
   -16.1649 -16.1649 -16.1647 -16.1647 -16.1578 -16.1578 -16.1577 -16.1577
   -16.1540 -16.1540 -16.1540 -16.1540 -16.1305 -16.1305 -16.1305 -16.1305
   -16.1292 -16.1292 -16.1292 -16.1292 -16.1290 -16.1290 -16.1264 -16.1264
   -16.1176 -16.1176 -16.1176 -16.1176 -16.1140 -16.1140  -6.6971  -6.6971
    -6.3742  -6.3742  -6.0196  -6.0196  -3.4751  -3.4751  -3.3817  -3.3817
    -3.2283  -3.2283  -3.1505  -3.1505  -3.0656  -3.0656  -2.9697  -2.9697
    -2.8787  -2.8787  -2.2790  -2.2790  -2.1923  -2.1923  -2.1709  -2.1709
    -1.9867  -1.9867  -1.4558  -1.4558  -0.9845  -0.9845  -0.5278  -0.5278
     1.1474   1.1474   1.2559   1.2559   1.4149   1.4149   1.6688   1.6688
     1.7640   1.7640   1.8937   1.8937   2.2549   2.2550

          k = 0.0000-0.5000 0.0000 ( 94248 PWs)   bands (ev):

   -55.0324 -55.0324 -54.5418 -54.5418 -54.5418 -54.5418 -54.5418 -54.5418
   -54.5418 -54.5418 -26.9435 -26.9435 -26.9236 -26.9236 -26.9236 -26.9236
   -26.4558 -26.4558 -26.4558 -26.4558 -26.4555 -26.4555 -26.4554 -26.4554
   -26.4401 -26.4401 -26.4401 -26.4401 -26.4396 -26.4396 -26.4396 -26.4396
   -26.4324 -26.4324 -26.4324 -26.4324 -26.4322 -26.4322 -26.4322 -26.4322
   -16.1649 -16.1649 -16.1647 -16.1647 -16.1578 -16.1578 -16.1577 -16.1577
   -16.1540 -16.1540 -16.1540 -16.1540 -16.1305 -16.1305 -16.1305 -16.1305
   -16.1292 -16.1292 -16.1292 -16.1292 -16.1290 -16.1290 -16.1264 -16.1264
   -16.1176 -16.1176 -16.1176 -16.1176 -16.1140 -16.1140  -6.6605  -6.6605
    -6.4023  -6.4023  -6.0505  -6.0505  -3.4519  -3.4519  -3.4291  -3.4291
    -3.2463  -3.2463  -3.1360  -3.1360  -2.9712  -2.9712  -2.9394  -2.9394
    -2.6249  -2.6249  -2.5169  -2.5169  -2.2330  -2.2330  -2.1329  -2.1329
    -2.0901  -2.0901  -1.3039  -1.3039  -1.2278  -1.2278  -0.5178  -0.5178
     1.1906   1.1906   1.2969   1.2969   1.4635   1.4635   1.6597   1.6597
     1.7081   1.7081   1.9297   1.9297   1.9750   1.9750

          k = 0.0000-0.5000 0.1633 ( 94220 PWs)   bands (ev):

   -55.0324 -55.0324 -54.5418 -54.5418 -54.5418 -54.5418 -54.5418 -54.5418
   -54.5418 -54.5418 -26.9435 -26.9435 -26.9236 -26.9236 -26.9236 -26.9236
   -26.4558 -26.4558 -26.4558 -26.4558 -26.4555 -26.4555 -26.4555 -26.4555
   -26.4401 -26.4401 -26.4401 -26.4401 -26.4396 -26.4396 -26.4396 -26.4396
   -26.4324 -26.4324 -26.4324 -26.4324 -26.4322 -26.4322 -26.4322 -26.4322
   -16.1649 -16.1649 -16.1647 -16.1647 -16.1578 -16.1578 -16.1577 -16.1577
   -16.1540 -16.1540 -16.1540 -16.1540 -16.1305 -16.1305 -16.1305 -16.1305
   -16.1292 -16.1292 -16.1292 -16.1292 -16.1290 -16.1290 -16.1264 -16.1264
   -16.1176 -16.1176 -16.1176 -16.1176 -16.1140 -16.1140  -6.6601  -6.6601
    -6.4029  -6.4029  -6.0506  -6.0506  -3.4634  -3.4634  -3.3867  -3.3867
    -3.2374  -3.2374  -3.1520  -3.1520  -3.0173  -3.0173  -2.9473  -2.9473
    -2.6061  -2.6061  -2.5182  -2.5182  -2.2496  -2.2496  -2.1647  -2.1647
    -2.0169  -2.0169  -1.2917  -1.2917  -1.2334  -1.2334  -0.5431  -0.5431
     1.1619   1.1619   1.2763   1.2763   1.4780   1.4780   1.6442   1.6442
     1.7324   1.7324   1.9336   1.9336   2.1086   2.1086

          k = 0.0000-0.5000-0.3266 ( 94192 PWs)   bands (ev):

   -55.0324 -55.0324 -54.5418 -54.5418 -54.5418 -54.5418 -54.5418 -54.5418
   -54.5418 -54.5418 -26.9435 -26.9435 -26.9236 -26.9236 -26.9236 -26.9236
   -26.4558 -26.4558 -26.4558 -26.4558 -26.4554 -26.4554 -26.4554 -26.4554
   -26.4401 -26.4401 -26.4401 -26.4401 -26.4396 -26.4396 -26.4396 -26.4396
   -26.4324 -26.4324 -26.4324 -26.4324 -26.4322 -26.4322 -26.4322 -26.4322
   -16.1649 -16.1649 -16.1647 -16.1647 -16.1578 -16.1578 -16.1577 -16.1577
   -16.1540 -16.1540 -16.1540 -16.1540 -16.1305 -16.1305 -16.1305 -16.1305
   -16.1292 -16.1292 -16.1292 -16.1292 -16.1290 -16.1290 -16.1264 -16.1264
   -16.1176 -16.1176 -16.1176 -16.1176 -16.1140 -16.1140  -6.6597  -6.6597
    -6.4034  -6.4034  -6.0506  -6.0506  -3.4678  -3.4678  -3.3443  -3.3443
    -3.2049  -3.2049  -3.1659  -3.1659  -3.1186  -3.1186  -2.9266  -2.9266
    -2.5895  -2.5895  -2.5201  -2.5201  -2.2651  -2.2651  -2.1816  -2.1816
    -1.9613  -1.9613  -1.2782  -1.2782  -1.2412  -1.2412  -0.5689  -0.5689
     1.1469   1.1469   1.2469   1.2469   1.4684   1.4684   1.6655   1.6655
     1.7660   1.7660   1.9140   1.9140   2.3303   2.3303

          k = 0.1667 0.1667 0.0000 ( 94257 PWs)   bands (ev):

   -55.0324 -55.0324 -54.5418 -54.5418 -54.5418 -54.5418 -54.5418 -54.5418
   -54.5418 -54.5418 -26.9435 -26.9435 -26.9236 -26.9236 -26.9236 -26.9236
   -26.4560 -26.4560 -26.4556 -26.4556 -26.4556 -26.4556 -26.4553 -26.4553
   -26.4402 -26.4402 -26.4398 -26.4398 -26.4398 -26.4398 -26.4395 -26.4395
   -26.4324 -26.4324 -26.4323 -26.4323 -26.4323 -26.4323 -26.4322 -26.4322
   -16.1649 -16.1649 -16.1647 -16.1647 -16.1578 -16.1578 -16.1578 -16.1577
   -16.1540 -16.1540 -16.1540 -16.1540 -16.1305 -16.1305 -16.1305 -16.1305
   -16.1292 -16.1292 -16.1292 -16.1292 -16.1290 -16.1290 -16.1264 -16.1264
   -16.1176 -16.1176 -16.1176 -16.1176 -16.1140 -16.1140  -6.7443  -6.7128
    -6.3611  -6.3334  -5.9928  -5.9907  -3.6094  -3.4405  -3.4105  -3.3686
    -3.3449  -3.1529  -3.1407  -3.1145  -3.1067  -3.0340  -3.0058  -2.9890
    -2.8879  -2.8317  -2.4762  -2.2970  -2.2531  -2.1037  -2.0728  -2.0503
    -2.0037  -1.9671  -1.6347  -1.4137  -0.8906  -0.6807  -0.5227  -0.4709
     0.9978   1.2147   1.3080   1.3779   1.4020   1.4775   1.4807   1.6639
     1.6940   1.7806   1.8534   1.9334   1.9796   2.1167

          k = 0.1667 0.1667 0.1633 ( 94262 PWs)   bands (ev):

   -55.0324 -55.0324 -54.5418 -54.5418 -54.5418 -54.5418 -54.5418 -54.5418
   -54.5418 -54.5418 -26.9435 -26.9435 -26.9236 -26.9236 -26.9236 -26.9236
   -26.4560 -26.4560 -26.4556 -26.4556 -26.4556 -26.4556 -26.4553 -26.4553
   -26.4402 -26.4402 -26.4398 -26.4398 -26.4398 -26.4398 -26.4395 -26.4395
   -26.4324 -26.4324 -26.4323 -26.4323 -26.4323 -26.4323 -26.4322 -26.4322
   -16.1649 -16.1649 -16.1647 -16.1647 -16.1578 -16.1578 -16.1578 -16.1578
   -16.1540 -16.1540 -16.1540 -16.1540 -16.1305 -16.1305 -16.1305 -16.1305
   -16.1292 -16.1292 -16.1292 -16.1292 -16.1290 -16.1290 -16.1264 -16.1264
   -16.1176 -16.1176 -16.1176 -16.1176 -16.1140 -16.1140  -6.7398  -6.7175
    -6.3571  -6.3375  -5.9926  -5.9911  -3.5604  -3.4291  -3.4124  -3.3752
    -3.3518  -3.2217  -3.1230  -3.1115  -3.1040  -3.0470  -3.0108  -2.9923
    -2.8995  -2.8850  -2.3875  -2.2637  -2.2394  -2.1324  -2.0740  -2.0479
    -1.9840  -1.9786  -1.6228  -1.4526  -0.8367  -0.6660  -0.5769  -0.5206
     1.0346   1.2055   1.3000   1.3577   1.3896   1.3952   1.5339   1.7318
     1.7684   1.7891   1.8970   1.9517   1.9807   2.1107

          k = 0.1667 0.1667-0.3266 ( 94284 PWs)   bands (ev):

   -55.0324 -55.0324 -54.5418 -54.5418 -54.5418 -54.5418 -54.5418 -54.5418
   -54.5418 -54.5418 -26.9435 -26.9435 -26.9236 -26.9236 -26.9236 -26.9236
   -26.4560 -26.4560 -26.4556 -26.4556 -26.4556 -26.4556 -26.4553 -26.4553
   -26.4402 -26.4402 -26.4398 -26.4398 -26.4398 -26.4398 -26.4395 -26.4395
   -26.4324 -26.4324 -26.4323 -26.4323 -26.4323 -26.4323 -26.4322 -26.4322
   -16.1649 -16.1649 -16.1647 -16.1647 -16.1578 -16.1578 -16.1578 -16.1578
   -16.1540 -16.1540 -16.1540 -16.1540 -16.1305 -16.1305 -16.1305 -16.1305
   -16.1292 -16.1292 -16.1292 -16.1292 -16.1290 -16.1290 -16.1264 -16.1264
   -16.1176 -16.1176 -16.1176 -16.1176 -16.1140 -16.1140  -6.7288  -6.7288
    -6.3474  -6.3474  -5.9920  -5.9920  -3.4524  -3.4524  -3.3774  -3.3774
    -3.3630  -3.3630  -3.1370  -3.1370  -3.0272  -3.0272  -2.9895  -2.9895
    -2.9502  -2.9502  -2.3070  -2.3070  -2.1188  -2.1188  -2.0751  -2.0751
    -2.0074  -2.0074  -1.5470  -1.5470  -0.7068  -0.7068  -0.6102  -0.6102
     1.1514   1.1514   1.2542   1.2542   1.3771   1.3771   1.7106   1.7106
     1.8228   1.8228   1.9635   1.9635   2.0943   2.0943

          k = 0.1667 0.3333 0.0000 ( 94234 PWs)   bands (ev):

   -55.0324 -55.0324 -54.5418 -54.5418 -54.5418 -54.5418 -54.5418 -54.5418
   -54.5418 -54.5418 -26.9435 -26.9435 -26.9236 -26.9236 -26.9236 -26.9236
   -26.4559 -26.4559 -26.4557 -26.4557 -26.4556 -26.4556 -26.4554 -26.4554
   -26.4402 -26.4402 -26.4399 -26.4399 -26.4398 -26.4398 -26.4396 -26.4396
   -26.4324 -26.4324 -26.4323 -26.4323 -26.4323 -26.4323 -26.4322 -26.4322
   -16.1649 -16.1649 -16.1647 -16.1647 -16.1578 -16.1578 -16.1577 -16.1577
   -16.1540 -16.1540 -16.1540 -16.1540 -16.1305 -16.1305 -16.1305 -16.1305
   -16.1292 -16.1292 -16.1292 -16.1292 -16.1290 -16.1290 -16.1264 -16.1264
   -16.1176 -16.1176 -16.1176 -16.1176 -16.1140 -16.1140  -6.6832  -6.6575
    -6.3876  -6.3619  -6.0716  -6.0707  -3.5290  -3.4245  -3.3779  -3.3130
    -3.2598  -3.2089  -3.1139  -3.0727  -3.0142  -2.9928  -2.9410  -2.9399
    -2.9072  -2.8749  -2.3850  -2.2964  -2.2645  -2.2219  -2.1260  -2.0673
    -2.0474  -2.0261  -1.4855  -1.4070  -1.1345  -1.0036  -0.6717  -0.6320
     1.0713   1.2637   1.3217   1.3690   1.4507   1.5380   1.5625   1.7118
     1.7255   1.8037   1.9241   1.9851   2.1369   2.3160

          k = 0.1667 0.3333 0.1633 ( 94260 PWs)   bands (ev):

   -55.0324 -55.0324 -54.5418 -54.5418 -54.5418 -54.5418 -54.5418 -54.5418
   -54.5418 -54.5418 -26.9435 -26.9435 -26.9236 -26.9236 -26.9236 -26.9236
   -26.4559 -26.4559 -26.4557 -26.4557 -26.4556 -26.4556 -26.4554 -26.4554
   -26.4402 -26.4402 -26.4399 -26.4399 -26.4398 -26.4398 -26.4396 -26.4396
   -26.4324 -26.4324 -26.4323 -26.4323 -26.4323 -26.4323 -26.4322 -26.4322
   -16.1649 -16.1649 -16.1647 -16.1647 -16.1578 -16.1578 -16.1578 -16.1577
   -16.1540 -16.1540 -16.1540 -16.1540 -16.1305 -16.1305 -16.1305 -16.1305
   -16.1292 -16.1292 -16.1292 -16.1292 -16.1290 -16.1290 -16.1264 -16.1264
   -16.1176 -16.1176 -16.1176 -16.1176 -16.1140 -16.1140  -6.6794  -6.6613
    -6.3841  -6.3658  -6.0716  -6.0709  -3.5000  -3.4224  -3.3826  -3.3175
    -3.2323  -3.1916  -3.1191  -3.0976  -3.0371  -3.0136  -2.9685  -2.9271
    -2.9153  -2.8879  -2.3858  -2.3183  -2.2381  -2.2054  -2.1171  -2.0760
    -2.0492  -1.9912  -1.4707  -1.4132  -1.0921  -0.9987  -0.7080  -0.6755
     1.0815   1.2236   1.2703   1.3594   1.4389   1.4969   1.5897   1.7571
     1.8106   1.9047   1.9351   1.9909   2.1103   2.4115

          k = 0.1667 0.3333-0.3266 ( 94246 PWs)   bands (ev):

   -55.0324 -55.0324 -54.5418 -54.5418 -54.5418 -54.5418 -54.5418 -54.5418
   -54.5418 -54.5418 -26.9435 -26.9435 -26.9236 -26.9236 -26.9236 -26.9236
   -26.4559 -26.4559 -26.4557 -26.4557 -26.4556 -26.4556 -26.4554 -26.4554
   -26.4402 -26.4402 -26.4399 -26.4399 -26.4398 -26.4398 -26.4396 -26.4396
   -26.4324 -26.4324 -26.4323 -26.4323 -26.4323 -26.4323 -26.4322 -26.4322
   -16.1649 -16.1649 -16.1647 -16.1647 -16.1578 -16.1578 -16.1577 -16.1577
   -16.1540 -16.1540 -16.1540 -16.1540 -16.1305 -16.1305 -16.1305 -16.1305
   -16.1292 -16.1292 -16.1292 -16.1292 -16.1290 -16.1290 -16.1264 -16.1264
   -16.1176 -16.1176 -16.1176 -16.1176 -16.1140 -16.1140  -6.6703  -6.6703
    -6.3751  -6.3751  -6.0714  -6.0713  -3.4631  -3.4457  -3.3227  -3.3171
    -3.2589  -3.2005  -3.1248  -3.0978  -3.0682  -3.0198  -2.9924  -2.9531
    -2.8981  -2.8822  -2.3790  -2.3759  -2.2008  -2.1916  -2.0895  -2.0864
    -2.0184  -1.9969  -1.4379  -1.4370  -1.0272  -1.0036  -0.7464  -0.7298
     1.1279   1.1444   1.2658   1.2744   1.4565   1.4911   1.6889   1.7081
     1.8861   1.9151   2.0016   2.0144   2.2795   2.2868

          k = 0.1667-0.5000 0.0000 ( 94188 PWs)   bands (ev):

   -55.0324 -55.0324 -54.5418 -54.5418 -54.5418 -54.5418 -54.5418 -54.5418
   -54.5418 -54.5418 -26.9435 -26.9435 -26.9236 -26.9236 -26.9236 -26.9236
   -26.4558 -26.4558 -26.4558 -26.4558 -26.4555 -26.4555 -26.4555 -26.4555
   -26.4400 -26.4400 -26.4400 -26.4400 -26.4397 -26.4397 -26.4397 -26.4397
   -26.4324 -26.4324 -26.4324 -26.4324 -26.4323 -26.4323 -26.4323 -26.4323
   -16.1648 -16.1648 -16.1647 -16.1647 -16.1578 -16.1578 -16.1577 -16.1577
   -16.1540 -16.1540 -16.1540 -16.1540 -16.1305 -16.1305 -16.1305 -16.1305
   -16.1292 -16.1292 -16.1292 -16.1292 -16.1291 -16.1291 -16.1264 -16.1264
   -16.1176 -16.1176 -16.1176 -16.1176 -16.1140 -16.1140  -6.6300  -6.6300
    -6.4014  -6.4014  -6.1077  -6.1077  -3.4102  -3.4102  -3.4056  -3.4056
    -3.2567  -3.2567  -3.0416  -3.0416  -3.0081  -3.0081  -2.9344  -2.9344
    -2.6193  -2.6193  -2.5176  -2.5176  -2.2843  -2.2843  -2.1434  -2.1434
    -2.0316  -2.0316  -1.3436  -1.3436  -1.2610  -1.2610  -0.7053  -0.7053
     1.2015   1.2015   1.3170   1.3170   1.5062   1.5062   1.6701   1.6701
     1.8845   1.8845   2.0149   2.0150   2.0351   2.0351

          k = 0.1667-0.5000 0.1633 ( 94228 PWs)   bands (ev):

   -55.0324 -55.0324 -54.5418 -54.5418 -54.5418 -54.5418 -54.5418 -54.5418
   -54.5418 -54.5418 -26.9435 -26.9435 -26.9236 -26.9236 -26.9236 -26.9236
   -26.4558 -26.4558 -26.4558 -26.4558 -26.4555 -26.4555 -26.4555 -26.4555
   -26.4400 -26.4400 -26.4400 -26.4400 -26.4397 -26.4397 -26.4397 -26.4397
   -26.4324 -26.4324 -26.4324 -26.4324 -26.4323 -26.4323 -26.4323 -26.4323
   -16.1648 -16.1648 -16.1647 -16.1647 -16.1578 -16.1578 -16.1577 -16.1577
   -16.1540 -16.1540 -16.1540 -16.1540 -16.1305 -16.1305 -16.1305 -16.1305
   -16.1292 -16.1292 -16.1292 -16.1292 -16.1291 -16.1291 -16.1264 -16.1264
   -16.1176 -16.1176 -16.1176 -16.1176 -16.1140 -16.1140  -6.6296  -6.6296
    -6.4019  -6.4019  -6.1078  -6.1078  -3.4483  -3.4483  -3.3323  -3.3323
    -3.2543  -3.2543  -3.0653  -3.0653  -3.0048  -3.0048  -2.9705  -2.9705
    -2.6056  -2.6056  -2.5191  -2.5191  -2.3386  -2.3386  -2.0975  -2.0975
    -2.0144  -2.0144  -1.3205  -1.3205  -1.2528  -1.2528  -0.7411  -0.7411
     1.1585   1.1585   1.3132   1.3132   1.4834   1.4834   1.7123   1.7123
     1.8947   1.8947   2.0135   2.0135   2.1577   2.1578

          k = 0.1667-0.5000-0.3266 ( 94184 PWs)   bands (ev):

   -55.0324 -55.0324 -54.5418 -54.5418 -54.5418 -54.5418 -54.5418 -54.5418
   -54.5418 -54.5418 -26.9435 -26.9435 -26.9236 -26.9236 -26.9236 -26.9236
   -26.4558 -26.4558 -26.4558 -26.4558 -26.4555 -26.4555 -26.4555 -26.4555
   -26.4400 -26.4400 -26.4400 -26.4400 -26.4397 -26.4397 -26.4397 -26.4397
   -26.4324 -26.4324 -26.4324 -26.4324 -26.4323 -26.4323 -26.4323 -26.4323
   -16.1648 -16.1648 -16.1647 -16.1647 -16.1578 -16.1578 -16.1577 -16.1577
   -16.1540 -16.1540 -16.1540 -16.1540 -16.1305 -16.1305 -16.1305 -16.1305
   -16.1292 -16.1292 -16.1292 -16.1292 -16.1291 -16.1291 -16.1264 -16.1264
   -16.1176 -16.1176 -16.1176 -16.1176 -16.1140 -16.1140  -6.6292  -6.6292
    -6.4024  -6.4024  -6.1079  -6.1079  -3.4619  -3.4619  -3.2804  -3.2804
    -3.1877  -3.1877  -3.1738  -3.1738  -3.0426  -3.0426  -2.9416  -2.9416
    -2.5924  -2.5924  -2.5224  -2.5224  -2.3810  -2.3810  -2.0824  -2.0824
    -1.9818  -1.9818  -1.2949  -1.2949  -1.2444  -1.2444  -0.7802  -0.7802
     1.1229   1.1229   1.2871   1.2871   1.5263   1.5263   1.6829   1.6829
     1.9276   1.9276   2.0097   2.0097   2.3896   2.3905

          k = 0.3333 0.3333 0.0000 ( 94266 PWs)   bands (ev):

   -55.0324 -55.0324 -54.5418 -54.5418 -54.5418 -54.5418 -54.5418 -54.5418
   -54.5418 -54.5418 -26.9435 -26.9435 -26.9236 -26.9236 -26.9236 -26.9236
   -26.4558 -26.4558 -26.4556 -26.4556 -26.4556 -26.4556 -26.4554 -26.4554
   -26.4401 -26.4401 -26.4399 -26.4399 -26.4398 -26.4398 -26.4396 -26.4396
   -26.4324 -26.4324 -26.4323 -26.4323 -26.4323 -26.4323 -26.4322 -26.4322
   -16.1647 -16.1647 -16.1647 -16.1647 -16.1578 -16.1578 -16.1577 -16.1577
   -16.1540 -16.1540 -16.1540 -16.1540 -16.1305 -16.1305 -16.1305 -16.1305
   -16.1292 -16.1292 -16.1292 -16.1292 -16.1291 -16.1291 -16.1264 -16.1264
   -16.1176 -16.1176 -16.1176 -16.1176 -16.1140 -16.1140  -6.6116  -6.5866
    -6.3978  -6.3671  -6.1860  -6.1799  -3.4534  -3.4476  -3.4380  -3.2358
    -3.1546  -3.0820  -3.0148  -3.0107  -2.9624  -2.9600  -2.9357  -2.9162
    -2.8922  -2.8881  -2.3539  -2.3338  -2.3198  -2.2651  -2.2406  -2.1209
    -1.9968  -1.9699  -1.4632  -1.4431  -1.3103  -1.2035  -0.9205  -0.8444
     1.1261   1.2865   1.3133   1.3763   1.5582   1.5816   1.6202   1.7322
     1.8395   1.9138   2.0509   2.3239   2.3936   2.4296

          k = 0.3333 0.3333 0.1633 ( 94249 PWs)   bands (ev):

   -55.0324 -55.0324 -54.5418 -54.5418 -54.5418 -54.5418 -54.5418 -54.5418
   -54.5418 -54.5418 -26.9435 -26.9435 -26.9236 -26.9236 -26.9236 -26.9236
   -26.4558 -26.4558 -26.4556 -26.4556 -26.4556 -26.4556 -26.4554 -26.4554
   -26.4401 -26.4401 -26.4399 -26.4399 -26.4398 -26.4398 -26.4396 -26.4396
   -26.4324 -26.4324 -26.4323 -26.4323 -26.4323 -26.4323 -26.4322 -26.4322
   -16.1647 -16.1647 -16.1647 -16.1647 -16.1578 -16.1578 -16.1577 -16.1577
   -16.1540 -16.1540 -16.1540 -16.1540 -16.1305 -16.1305 -16.1305 -16.1305
   -16.1292 -16.1292 -16.1292 -16.1292 -16.1291 -16.1291 -16.1264 -16.1264
   -16.1176 -16.1176 -16.1176 -16.1176 -16.1140 -16.1140  -6.6079  -6.5903
    -6.3934  -6.3717  -6.1852  -6.1809  -3.4916  -3.4665  -3.3645  -3.1962
    -3.1014  -3.0745  -3.0476  -3.0356  -2.9932  -2.9616  -2.9399  -2.9222
    -2.9110  -2.8914  -2.4384  -2.4099  -2.2839  -2.2396  -2.1896  -2.0917
    -1.9950  -1.9784  -1.4298  -1.4138  -1.2422  -1.1751  -0.9800  -0.9105
     1.1039   1.1814   1.3393   1.4048   1.4513   1.5337   1.6918   1.8476
     1.8888   1.9887   2.0680   2.3248   2.3467   2.5051

          k = 0.3333 0.3333-0.3266 ( 94168 PWs)   bands (ev):

   -55.0324 -55.0324 -54.5418 -54.5418 -54.5418 -54.5418 -54.5418 -54.5418
   -54.5418 -54.5418 -26.9435 -26.9435 -26.9236 -26.9236 -26.9236 -26.9236
   -26.4558 -26.4558 -26.4556 -26.4556 -26.4556 -26.4556 -26.4554 -26.4554
   -26.4401 -26.4401 -26.4399 -26.4399 -26.4398 -26.4398 -26.4396 -26.4396
   -26.4324 -26.4324 -26.4323 -26.4323 -26.4323 -26.4323 -26.4322 -26.4322
   -16.1647 -16.1647 -16.1647 -16.1647 -16.1578 -16.1578 -16.1577 -16.1577
   -16.1540 -16.1540 -16.1540 -16.1540 -16.1305 -16.1305 -16.1305 -16.1305
   -16.1292 -16.1292 -16.1292 -16.1292 -16.1291 -16.1291 -16.1264 -16.1264
   -16.1176 -16.1176 -16.1176 -16.1176 -16.1140 -16.1140  -6.5991  -6.5991
    -6.3826  -6.3826  -6.1832  -6.1832  -3.4967  -3.4967  -3.2226  -3.2226
    -3.0963  -3.0963  -3.0516  -3.0516  -3.0084  -3.0084  -2.9096  -2.9096
    -2.9079  -2.9079  -2.4880  -2.4880  -2.2540  -2.2540  -2.1009  -2.1009
    -1.9912  -1.9912  -1.3873  -1.3873  -1.1056  -1.1056  -1.0660  -1.0660
     1.0926   1.0926   1.3382   1.3382   1.5707   1.5707   1.6936   1.6936
     2.0089   2.0089   2.3284   2.3284   2.3616   2.3617

          k = 0.3333-0.5000 0.0000 ( 94212 PWs)   bands (ev):

   -55.0324 -55.0324 -54.5418 -54.5418 -54.5418 -54.5418 -54.5418 -54.5418
   -54.5418 -54.5418 -26.9435 -26.9435 -26.9236 -26.9236 -26.9236 -26.9236
   -26.4557 -26.4557 -26.4557 -26.4557 -26.4555 -26.4555 -26.4555 -26.4555
   -26.4400 -26.4400 -26.4400 -26.4400 -26.4397 -26.4397 -26.4397 -26.4397
   -26.4323 -26.4323 -26.4323 -26.4323 -26.4323 -26.4323 -26.4323 -26.4323
   -16.1647 -16.1647 -16.1647 -16.1647 -16.1578 -16.1578 -16.1577 -16.1577
   -16.1540 -16.1540 -16.1540 -16.1540 -16.1305 -16.1305 -16.1305 -16.1305
   -16.1292 -16.1292 -16.1292 -16.1292 -16.1292 -16.1292 -16.1265 -16.1265
   -16.1176 -16.1176 -16.1176 -16.1176 -16.1140 -16.1140  -6.5419  -6.5419
    -6.3995  -6.3995  -6.2456  -6.2456  -3.4701  -3.4701  -3.3405  -3.3405
    -3.0994  -3.0994  -2.9900  -2.9900  -2.9247  -2.9247  -2.9241  -2.9241
    -2.6117  -2.6117  -2.5203  -2.5203  -2.3443  -2.3443  -2.2222  -2.2222
    -1.9580  -1.9580  -1.4525  -1.4525  -1.3737  -1.3737  -0.9461  -0.9461
     1.2101   1.2101   1.3568   1.3568   1.6033   1.6033   1.6922   1.6922
     1.9727   1.9727   2.1396   2.1396   2.4639   2.4640

          k = 0.3333-0.5000 0.1633 ( 94184 PWs)   bands (ev):

   -55.0324 -55.0324 -54.5418 -54.5418 -54.5418 -54.5418 -54.5418 -54.5418
   -54.5418 -54.5418 -26.9435 -26.9435 -26.9236 -26.9236 -26.9236 -26.9236
   -26.4557 -26.4557 -26.4557 -26.4557 -26.4555 -26.4555 -26.4555 -26.4555
   -26.4400 -26.4400 -26.4400 -26.4400 -26.4397 -26.4397 -26.4397 -26.4397
   -26.4323 -26.4323 -26.4323 -26.4323 -26.4323 -26.4323 -26.4323 -26.4323
   -16.1647 -16.1647 -16.1647 -16.1647 -16.1578 -16.1578 -16.1577 -16.1577
   -16.1540 -16.1540 -16.1540 -16.1540 -16.1305 -16.1305 -16.1305 -16.1305
   -16.1292 -16.1292 -16.1292 -16.1292 -16.1292 -16.1292 -16.1265 -16.1265
   -16.1176 -16.1176 -16.1176 -16.1176 -16.1140 -16.1140  -6.5413  -6.5413
    -6.4000  -6.4000  -6.2459  -6.2459  -3.4994  -3.4994  -3.2791  -3.2791
    -3.0600  -3.0600  -3.0017  -3.0017  -2.9797  -2.9797  -2.9252  -2.9252
    -2.6051  -2.6051  -2.5296  -2.5296  -2.4280  -2.4280  -2.1640  -2.1640
    -1.9611  -1.9611  -1.3923  -1.3923  -1.3358  -1.3358  -1.0120  -1.0120
     1.1379   1.1379   1.3988   1.3988   1.4980   1.4980   1.8267   1.8267
     1.9467   1.9467   2.2564   2.2564   2.4534   2.4535

          k = 0.3333-0.5000-0.3266 ( 94196 PWs)   bands (ev):

   -55.0324 -55.0324 -54.5418 -54.5418 -54.5418 -54.5418 -54.5418 -54.5418
   -54.5418 -54.5418 -26.9435 -26.9435 -26.9236 -26.9236 -26.9236 -26.9236
   -26.4557 -26.4557 -26.4557 -26.4557 -26.4555 -26.4555 -26.4555 -26.4555
   -26.4400 -26.4400 -26.4400 -26.4400 -26.4397 -26.4397 -26.4397 -26.4397
   -26.4323 -26.4323 -26.4323 -26.4323 -26.4323 -26.4323 -26.4323 -26.4323
   -16.1647 -16.1647 -16.1647 -16.1647 -16.1578 -16.1578 -16.1577 -16.1577
   -16.1540 -16.1540 -16.1540 -16.1540 -16.1305 -16.1305 -16.1305 -16.1305
   -16.1292 -16.1292 -16.1292 -16.1292 -16.1292 -16.1292 -16.1265 -16.1265
   -16.1176 -16.1176 -16.1176 -16.1176 -16.1140 -16.1140  -6.5408  -6.5408
    -6.4005  -6.4005  -6.2462  -6.2462  -3.5201  -3.5201  -3.1518  -3.1518
    -3.1455  -3.1455  -3.0201  -3.0201  -2.9637  -2.9637  -2.9292  -2.9292
    -2.5983  -2.5983  -2.5619  -2.5619  -2.4746  -2.4746  -2.1304  -2.1304
    -1.9638  -1.9638  -1.3329  -1.3329  -1.2512  -1.2512  -1.1243  -1.1243
     1.0704   1.0704   1.3859   1.3859   1.6259   1.6259   1.6632   1.6632
     2.0528   2.0528   2.3896   2.3897   2.4900   2.4901

          k =-0.5000-0.5000 0.0000 ( 94244 PWs)   bands (ev):

   -55.0324 -55.0324 -54.5418 -54.5418 -54.5418 -54.5418 -54.5418 -54.5418
   -54.5418 -54.5418 -26.9435 -26.9435 -26.9236 -26.9236 -26.9236 -26.9236
   -26.4556 -26.4556 -26.4556 -26.4556 -26.4556 -26.4556 -26.4556 -26.4556
   -26.4399 -26.4399 -26.4399 -26.4399 -26.4398 -26.4398 -26.4398 -26.4398
   -26.4323 -26.4323 -26.4323 -26.4323 -26.4323 -26.4323 -26.4323 -26.4323
   -16.1647 -16.1647 -16.1647 -16.1647 -16.1578 -16.1578 -16.1577 -16.1577
   -16.1540 -16.1540 -16.1540 -16.1540 -16.1305 -16.1305 -16.1305 -16.1305
   -16.1292 -16.1292 -16.1292 -16.1292 -16.1292 -16.1292 -16.1265 -16.1265
   -16.1176 -16.1176 -16.1176 -16.1176 -16.1141 -16.1141  -6.4153  -6.4153
    -6.4108  -6.4108  -6.3833  -6.3833  -3.5017  -3.5017  -3.2757  -3.2757
    -3.1770  -3.1770  -2.9187  -2.9187  -2.9078  -2.9078  -2.6228  -2.6228
    -2.6170  -2.6170  -2.5956  -2.5956  -2.3766  -2.3766  -2.3669  -2.3669
    -1.9293  -1.9293  -1.5226  -1.5226  -1.4485  -1.4485  -1.0048  -1.0048
     1.2142   1.2142   1.3763   1.3763   1.6574   1.6575   1.7036   1.7036
     1.9785   1.9785   2.3190   2.3190   2.4013   2.4013

          k =-0.5000-0.5000 0.1633 ( 94184 PWs)   bands (ev):

   -55.0324 -55.0324 -54.5418 -54.5418 -54.5418 -54.5418 -54.5418 -54.5418
   -54.5418 -54.5418 -26.9435 -26.9435 -26.9236 -26.9236 -26.9236 -26.9236
   -26.4556 -26.4556 -26.4556 -26.4556 -26.4556 -26.4556 -26.4556 -26.4556
   -26.4399 -26.4399 -26.4399 -26.4399 -26.4398 -26.4398 -26.4398 -26.4398
   -26.4323 -26.4323 -26.4323 -26.4323 -26.4323 -26.4323 -26.4323 -26.4323
   -16.1647 -16.1647 -16.1647 -16.1647 -16.1578 -16.1578 -16.1577 -16.1577
   -16.1540 -16.1540 -16.1540 -16.1540 -16.1305 -16.1305 -16.1305 -16.1305
   -16.1292 -16.1292 -16.1292 -16.1292 -16.1292 -16.1292 -16.1265 -16.1265
   -16.1176 -16.1176 -16.1176 -16.1176 -16.1141 -16.1141  -6.4108  -6.4108
    -6.4107  -6.4107  -6.3881  -6.3881  -3.5274  -3.5274  -3.2338  -3.2338
    -3.1087  -3.1087  -2.9871  -2.9871  -2.9103  -2.9103  -2.6173  -2.6173
    -2.6128  -2.6128  -2.5967  -2.5967  -2.5038  -2.5038  -2.3063  -2.3063
    -1.9322  -1.9322  -1.4404  -1.4404  -1.4026  -1.4026  -1.0776  -1.0776
     1.1268   1.1268   1.4559   1.4559   1.4972   1.4972   1.8719   1.8719
     1.9628   1.9628   2.3780   2.3781   2.5043   2.5044

          k =-0.5000-0.5000-0.3266 ( 94200 PWs)   bands (ev):

   -55.0324 -55.0324 -54.5418 -54.5418 -54.5418 -54.5418 -54.5418 -54.5418
   -54.5418 -54.5418 -26.9435 -26.9435 -26.9236 -26.9236 -26.9236 -26.9236
   -26.4556 -26.4556 -26.4556 -26.4556 -26.4556 -26.4556 -26.4556 -26.4556
   -26.4399 -26.4399 -26.4399 -26.4399 -26.4398 -26.4398 -26.4398 -26.4398
   -26.4323 -26.4323 -26.4323 -26.4323 -26.4323 -26.4323 -26.4323 -26.4323
   -16.1647 -16.1647 -16.1647 -16.1647 -16.1578 -16.1578 -16.1577 -16.1577
   -16.1540 -16.1540 -16.1540 -16.1540 -16.1305 -16.1305 -16.1305 -16.1305
   -16.1292 -16.1292 -16.1292 -16.1292 -16.1292 -16.1292 -16.1265 -16.1265
   -16.1176 -16.1176 -16.1176 -16.1176 -16.1141 -16.1141  -6.4108  -6.4108
    -6.3995  -6.3995  -6.3995  -6.3995  -3.5481  -3.5481  -3.1221  -3.1221
    -3.1221  -3.1221  -3.0279  -3.0279  -2.9188  -2.9188  -2.6095  -2.6095
    -2.6039  -2.6039  -2.6014  -2.6014  -2.6014  -2.6014  -2.2906  -2.2906
    -1.9343  -1.9343  -1.3591  -1.3591  -1.2546  -1.2546  -1.2546  -1.2546
     1.0461   1.0461   1.4529   1.4529   1.6534   1.6534   1.6534   1.6534
     2.1044   2.1044   2.5232   2.5233   2.5234   2.5239

     the Fermi energy is    -1.9108 ev

!    total energy              =   -2651.15615971 Ry
     estimated scf accuracy    <          8.9E-09 Ry
     smearing contrib. (-TS)   =       0.00219333 Ry
     internal energy E=F+TS    =   -2651.15835304 Ry

     The total energy is F=E-TS. E is the sum of the following terms:
     one-electron contribution =   -1957.01193296 Ry
     hartree contribution      =    1031.27728640 Ry
     xc contribution           =    -387.00305808 Ry
     ewald contribution        =    -672.19956896 Ry
     one-center paw contrib.   =    -666.22107944 Ry

     convergence has been achieved in  14 iterations

     Forces acting on atoms (cartesian axes, Ry/au):

     atom    1 type  1   force =     0.00000000    0.00000000    0.00000000
     atom    2 type  1   force =     0.00000000    0.00000000    0.00000000
     atom    3 type  1   force =     0.00000000    0.00000000    0.00000000
     atom    4 type  1   force =     0.00000000    0.00000000   -0.00000000
     atom    5 type  1   force =     0.00000000    0.00000000    0.00000000
     atom    6 type  1   force =     0.00000000    0.00000000    0.00000000
     atom    7 type  2   force =     0.00000000    0.00000000   -0.00000000
     atom    8 type  2   force =     0.00000000    0.00000000    0.00000000
     atom    9 type  2   force =     0.00011484    0.00011484    0.00000000
     atom   10 type  2   force =    -0.00011484    0.00011484    0.00000000
     atom   11 type  2   force =    -0.00011484   -0.00011484    0.00000000
     atom   12 type  2   force =    -0.00011484    0.00011484   -0.00000000
     atom   13 type  2   force =    -0.00011484   -0.00011484    0.00000000
     atom   14 type  2   force =     0.00011484   -0.00011484    0.00000000
     atom   15 type  2   force =     0.00011484   -0.00011484   -0.00000000
     atom   16 type  2   force =     0.00011484    0.00011484    0.00000000
     atom   17 type  3   force =    -0.00846396    0.02183016   -0.01840983
     atom   18 type  3   force =     0.00846396    0.02183016    0.01840983
     atom   19 type  3   force =    -0.02183016    0.00846396    0.01840983
     atom   20 type  3   force =     0.00846396    0.02183016   -0.01840983
     atom   21 type  3   force =    -0.02183016    0.00846396   -0.01840983
     atom   22 type  3   force =     0.00846396   -0.02183016   -0.01840983
     atom   23 type  3   force =     0.02183016    0.00846396   -0.01840983
     atom   24 type  3   force =     0.00846396   -0.02183016    0.01840983
     atom   25 type  3   force =     0.02183016    0.00846396    0.01840983
     atom   26 type  3   force =    -0.02183016   -0.00846396   -0.01840983
     atom   27 type  3   force =    -0.00846396    0.02183016    0.01840983
     atom   28 type  3   force =    -0.02183016   -0.00846396    0.01840983
     atom   29 type  3   force =    -0.00846396   -0.02183016    0.01840983
     atom   30 type  3   force =     0.02183016   -0.00846396    0.01840983
     atom   31 type  3   force =    -0.00846396   -0.02183016   -0.01840983
     atom   32 type  3   force =     0.02183016   -0.00846396   -0.01840983
     atom   33 type  3   force =     0.00000000    0.00000000    0.03429091
     atom   34 type  3   force =     0.00000000    0.00000000   -0.03429091
     atom   35 type  3   force =     0.00000000    0.00000000    0.03429091
     atom   36 type  3   force =     0.00000000    0.00000000   -0.03429091
     atom   37 type  3   force =     0.00306409   -0.02269729    0.00000000
     atom   38 type  3   force =    -0.00306409   -0.02269729    0.00000000
     atom   39 type  3   force =     0.02269729   -0.00306409    0.00000000
     atom   40 type  3   force =    -0.00306409    0.02269729    0.00000000
     atom   41 type  3   force =    -0.02269729   -0.00306409    0.00000000
     atom   42 type  3   force =     0.02269729    0.00306409    0.00000000
     atom   43 type  3   force =     0.00306409    0.02269729    0.00000000
     atom   44 type  3   force =    -0.02269729    0.00306409    0.00000000

     Total force =     0.151967     Total SCF correction =     0.000004


     Computing stress (Cartesian axis) and pressure

          total   stress  (Ry/bohr**3)                   (kbar)     P=      -63.00
  -0.00042263   0.00000000   0.00000000          -62.17        0.00        0.00
   0.00000000  -0.00042263   0.00000000            0.00      -62.17        0.00
   0.00000000   0.00000000  -0.00043959            0.00        0.00      -64.67


     BFGS Geometry Optimization
     Energy error            =      0.0E+00 Ry
     Gradient error          =      3.4E-02 Ry/Bohr

     number of scf cycles    =   1
     number of bfgs steps    =   0

     energy             new  =   -2651.1561597113 Ry

     new trust radius        =       0.0342909088 bohr
     new conv_thr            =       0.0000000100 Ry


ATOMIC_POSITIONS (crystal)
Ga            0.0000000000        0.0000000000        0.5000000000
Ga            0.5000000000        0.5000000000        0.0000000000
Ga            0.0000000000        0.5000000000        0.0000000000
Ga            0.5000000000        0.0000000000        0.5000000000
Ga            0.0000000000        0.5000000000        0.5000000000
Ga            0.5000000000        0.0000000000        0.0000000000
Na            0.0000000000        0.0000000000       -0.0000000000
Na            0.5000000000        0.5000000000        0.5000000000
Na            0.7873564616        0.2873564616        0.2500000000
Na            0.7126435384        0.7873564616        0.2500000000
Na            0.2126435384        0.7126435384        0.2500000000
Na            0.7126435384        0.7873564616        0.7500000000
Na            0.2126435384        0.7126435384        0.7500000000
Na            0.2873564616        0.2126435384        0.2500000000
Na            0.2873564616        0.2126435384        0.7500000000
Na            0.7873564616        0.2873564616        0.7500000000
H             0.0433237529        0.3212783324        0.1168332804
H             0.4566762471        0.8212783324        0.3831667196
H             0.1787216676        0.4566762471        0.3831667196
H             0.4566762471        0.8212783324        0.6168332804
H             0.1787216676        0.4566762471        0.6168332804
H             0.9566762471        0.6787216676        0.1168332804
H             0.3212783324        0.9566762471        0.1168332804
H             0.9566762471        0.6787216676        0.8831667196
H             0.3212783324        0.9566762471        0.8831667196
H             0.6787216676        0.0433237529        0.1168332804
H             0.0433237529        0.3212783324        0.8831667196
H             0.6787216676        0.0433237529        0.8831667196
H             0.5433237529        0.1787216676        0.3831667196
H             0.8212783324        0.5433237529        0.3831667196
H             0.5433237529        0.1787216676        0.6168332804
H             0.8212783324        0.5433237529        0.6168332804
H             0.0000000000        0.0000000000        0.3307604861
H             0.5000000000        0.5000000000        0.1692395139
H             0.5000000000        0.5000000000        0.8307604861
H             0.0000000000        0.0000000000        0.6692395139
H             0.2525424091        0.5738428766        0.0000000000
H             0.2474575909        0.0738428766        0.5000000000
H             0.9261571234        0.2474575909        0.5000000000
H             0.7474575909        0.4261571234        0.0000000000
H             0.5738428766        0.7474575909        0.0000000000
H             0.4261571234        0.2525424091        0.0000000000
H             0.7525424091        0.9261571234        0.5000000000
H             0.0738428766        0.7525424091        0.5000000000



     Writing config-only to output data dir ./na5ga3h14.save/
     NEW-OLD atomic charge density approx. for the potential
     Minimization algorithm failed to find Fermi energy: reverting to bisection
     Possible cause: smearing is larger than the electronic band-gap.

     total cpu time spent up to now is      211.2 secs

     Self-consistent Calculation

     iteration #  1     ecut=    75.00 Ry     beta= 0.70
     Davidson diagonalization with overlap
     ethr =  1.00E-06,  avg # of iterations =  4.2
     Minimization algorithm failed to find Fermi energy: reverting to bisection
     Possible cause: smearing is larger than the electronic band-gap.

     total cpu time spent up to now is      223.0 secs

     total energy              =   -2651.17877916 Ry
     estimated scf accuracy    <       0.00128783 Ry

     iteration #  2     ecut=    75.00 Ry     beta= 0.70
     Davidson diagonalization with overlap
     ethr =  6.57E-07,  avg # of iterations =  4.4
     Minimization algorithm failed to find Fermi energy: reverting to bisection
     Possible cause: smearing is larger than the electronic band-gap.

     total cpu time spent up to now is      234.2 secs

     total energy              =   -2651.17854324 Ry
     estimated scf accuracy    <       0.00498874 Ry

     iteration #  3     ecut=    75.00 Ry     beta= 0.70
     Davidson diagonalization with overlap
     ethr =  6.57E-07,  avg # of iterations =  2.6
     Minimization algorithm failed to find Fermi energy: reverting to bisection
     Possible cause: smearing is larger than the electronic band-gap.

     total cpu time spent up to now is      244.1 secs

     total energy              =   -2651.17930750 Ry
     estimated scf accuracy    <       0.00017416 Ry

     iteration #  4     ecut=    75.00 Ry     beta= 0.70
     Davidson diagonalization with overlap
     ethr =  8.89E-08,  avg # of iterations =  3.4
     Minimization algorithm failed to find Fermi energy: reverting to bisection
     Possible cause: smearing is larger than the electronic band-gap.

     total cpu time spent up to now is      254.0 secs

     total energy              =   -2651.17933365 Ry
     estimated scf accuracy    <       0.00003625 Ry

     iteration #  5     ecut=    75.00 Ry     beta= 0.70
     Davidson diagonalization with overlap
     ethr =  1.85E-08,  avg # of iterations =  7.1
     Minimization algorithm failed to find Fermi energy: reverting to bisection
     Possible cause: smearing is larger than the electronic band-gap.

     total cpu time spent up to now is      265.6 secs

     total energy              =   -2651.17934637 Ry
     estimated scf accuracy    <       0.00002895 Ry

     iteration #  6     ecut=    75.00 Ry     beta= 0.70
     Davidson diagonalization with overlap
     ethr =  1.48E-08,  avg # of iterations =  1.9
     Minimization algorithm failed to find Fermi energy: reverting to bisection
     Possible cause: smearing is larger than the electronic band-gap.

     total cpu time spent up to now is      274.4 secs

     total energy              =   -2651.17934960 Ry
     estimated scf accuracy    <       0.00000118 Ry

     iteration #  7     ecut=    75.00 Ry     beta= 0.70
     Davidson diagonalization with overlap
     ethr =  6.03E-10,  avg # of iterations =  7.1
     Minimization algorithm failed to find Fermi energy: reverting to bisection
     Possible cause: smearing is larger than the electronic band-gap.

     total cpu time spent up to now is      287.2 secs

     total energy              =   -2651.17935013 Ry
     estimated scf accuracy    <       0.00000012 Ry

     iteration #  8     ecut=    75.00 Ry     beta= 0.70
     Davidson diagonalization with overlap
     ethr =  6.05E-11,  avg # of iterations =  6.5
     Minimization algorithm failed to find Fermi energy: reverting to bisection
     Possible cause: smearing is larger than the electronic band-gap.

     total cpu time spent up to now is      300.1 secs

     total energy              =   -2651.17935018 Ry
     estimated scf accuracy    <       0.00000004 Ry

     iteration #  9     ecut=    75.00 Ry     beta= 0.70
     Davidson diagonalization with overlap
     ethr =  2.16E-11,  avg # of iterations =  6.2
     Minimization algorithm failed to find Fermi energy: reverting to bisection
     Possible cause: smearing is larger than the electronic band-gap.

     total cpu time spent up to now is      311.6 secs

     End of self-consistent calculation

          k = 0.0000 0.0000 0.0000 ( 94279 PWs)   bands (ev):

   -55.0499 -55.0499 -54.5596 -54.5596 -54.5596 -54.5596 -54.5596 -54.5596
   -54.5596 -54.5596 -26.9615 -26.9615 -26.9408 -26.9408 -26.9408 -26.9408
   -26.4738 -26.4738 -26.4734 -26.4734 -26.4734 -26.4734 -26.4730 -26.4730
   -26.4581 -26.4581 -26.4576 -26.4576 -26.4576 -26.4576 -26.4572 -26.4572
   -26.4502 -26.4502 -26.4501 -26.4501 -26.4501 -26.4501 -26.4499 -26.4499
   -16.1410 -16.1410 -16.1407 -16.1407 -16.1327 -16.1327 -16.1327 -16.1327
   -16.1291 -16.1291 -16.1290 -16.1290 -16.1033 -16.1033 -16.1032 -16.1032
   -16.1028 -16.1028 -16.1024 -16.1024 -16.1024 -16.1024 -16.1003 -16.1003
   -16.0897 -16.0897 -16.0897 -16.0897 -16.0859 -16.0859  -6.7876  -6.7537
    -6.3436  -6.3174  -5.9145  -5.9094  -3.6644  -3.5134  -3.5134  -3.4524
    -3.4524  -3.0884  -3.0870  -3.0833  -3.0833  -3.0715  -3.0088  -3.0088
    -2.8631  -2.8071  -2.5700  -2.2782  -2.2782  -2.0728  -2.0728  -1.9681
    -1.9626  -1.8531  -1.7194  -1.3769  -0.6321  -0.3373  -0.2968  -0.1010
     0.9568   1.1447   1.1918   1.1918   1.4206   1.4206   1.5662   1.5751
     1.6613   1.6613   1.7328   1.7328   1.8399   1.8414

          k = 0.0000 0.0000 0.1633 ( 94303 PWs)   bands (ev):

   -55.0499 -55.0499 -54.5596 -54.5596 -54.5596 -54.5596 -54.5596 -54.5596
   -54.5596 -54.5596 -26.9615 -26.9615 -26.9408 -26.9408 -26.9408 -26.9408
   -26.4738 -26.4738 -26.4734 -26.4734 -26.4734 -26.4734 -26.4730 -26.4730
   -26.4581 -26.4581 -26.4576 -26.4576 -26.4576 -26.4576 -26.4572 -26.4572
   -26.4502 -26.4502 -26.4501 -26.4501 -26.4501 -26.4501 -26.4499 -26.4499
   -16.1410 -16.1410 -16.1407 -16.1407 -16.1327 -16.1327 -16.1327 -16.1327
   -16.1291 -16.1291 -16.1290 -16.1290 -16.1033 -16.1033 -16.1032 -16.1032
   -16.1028 -16.1028 -16.1024 -16.1024 -16.1024 -16.1024 -16.1003 -16.1003
   -16.0897 -16.0897 -16.0897 -16.0897 -16.0859 -16.0859  -6.7828  -6.7588
    -6.3398  -6.3213  -5.9139  -5.9103  -3.6082  -3.5046  -3.5046  -3.4613
    -3.4613  -3.2253  -3.0750  -3.0750  -3.0607  -3.0533  -3.0230  -3.0230
    -2.9055  -2.8564  -2.3959  -2.2449  -2.2449  -2.1003  -2.1003  -1.9649
    -1.9442  -1.8650  -1.7195  -1.4431  -0.5830  -0.3459  -0.3253  -0.1678
     1.0048   1.2075   1.2075   1.2394   1.3623   1.3623   1.5391   1.6768
     1.6768   1.6939   1.7234   1.7234   1.8400   1.8410

          k = 0.0000 0.0000-0.3266 ( 94282 PWs)   bands (ev):

   -55.0499 -55.0499 -54.5596 -54.5596 -54.5596 -54.5596 -54.5596 -54.5596
   -54.5596 -54.5596 -26.9615 -26.9615 -26.9408 -26.9408 -26.9408 -26.9408
   -26.4738 -26.4738 -26.4734 -26.4734 -26.4734 -26.4734 -26.4730 -26.4730
   -26.4581 -26.4581 -26.4576 -26.4576 -26.4576 -26.4576 -26.4572 -26.4572
   -26.4502 -26.4502 -26.4501 -26.4501 -26.4501 -26.4501 -26.4499 -26.4499
   -16.1410 -16.1410 -16.1407 -16.1407 -16.1327 -16.1327 -16.1327 -16.1327
   -16.1291 -16.1291 -16.1290 -16.1290 -16.1033 -16.1033 -16.1032 -16.1032
   -16.1028 -16.1028 -16.1024 -16.1024 -16.1024 -16.1024 -16.1003 -16.1003
   -16.0897 -16.0897 -16.0897 -16.0897 -16.0859 -16.0859  -6.7709  -6.7709
    -6.3306  -6.3306  -5.9122  -5.9122  -3.4830  -3.4830  -3.4830  -3.4830
    -3.4498  -3.4498  -3.0519  -3.0519  -3.0519  -3.0519  -2.9908  -2.9908
    -2.9616  -2.9616  -2.1698  -2.1698  -2.1698  -2.1698  -2.1265  -2.1265
    -1.8989  -1.8989  -1.5987  -1.5987  -0.4644  -0.4644  -0.2707  -0.2707
     1.1441   1.1441   1.2664   1.2664   1.2664   1.2664   1.7004   1.7004
     1.7004   1.7004   1.7706   1.7706   1.8404   1.8404

          k = 0.0000 0.1667 0.0000 ( 94283 PWs)   bands (ev):

   -55.0499 -55.0499 -54.5596 -54.5596 -54.5596 -54.5596 -54.5596 -54.5596
   -54.5596 -54.5596 -26.9615 -26.9615 -26.9408 -26.9408 -26.9408 -26.9408
   -26.4738 -26.4738 -26.4735 -26.4735 -26.4734 -26.4734 -26.4731 -26.4731
   -26.4581 -26.4581 -26.4577 -26.4577 -26.4576 -26.4576 -26.4573 -26.4573
   -26.4502 -26.4502 -26.4501 -26.4501 -26.4500 -26.4500 -26.4499 -26.4499
   -16.1409 -16.1409 -16.1407 -16.1407 -16.1327 -16.1327 -16.1327 -16.1327
   -16.1291 -16.1291 -16.1290 -16.1290 -16.1033 -16.1033 -16.1032 -16.1032
   -16.1029 -16.1029 -16.1024 -16.1024 -16.1024 -16.1024 -16.1003 -16.1003
   -16.0897 -16.0897 -16.0897 -16.0897 -16.0859 -16.0859  -6.7649  -6.7323
    -6.3546  -6.3277  -5.9514  -5.9477  -3.6364  -3.4938  -3.4635  -3.3917
    -3.3646  -3.1462  -3.1081  -3.0896  -3.0734  -3.0560  -3.0355  -3.0148
    -2.8796  -2.8268  -2.4994  -2.2677  -2.2534  -2.0764  -2.0729  -2.0130
    -1.9664  -1.9061  -1.6539  -1.3730  -0.7526  -0.5409  -0.3385  -0.2605
     0.9710   1.1691   1.2362   1.3185   1.4018   1.4461   1.4918   1.6063
     1.7004   1.7272   1.7453   1.8058   1.9056   2.0675

          k = 0.0000 0.1667 0.1633 ( 94249 PWs)   bands (ev):

   -55.0499 -55.0499 -54.5596 -54.5596 -54.5596 -54.5596 -54.5596 -54.5596
   -54.5596 -54.5596 -26.9615 -26.9615 -26.9408 -26.9408 -26.9408 -26.9408
   -26.4738 -26.4738 -26.4735 -26.4735 -26.4734 -26.4734 -26.4731 -26.4731
   -26.4581 -26.4581 -26.4577 -26.4577 -26.4576 -26.4576 -26.4573 -26.4573
   -26.4502 -26.4502 -26.4501 -26.4501 -26.4500 -26.4500 -26.4499 -26.4499
   -16.1409 -16.1409 -16.1407 -16.1407 -16.1327 -16.1327 -16.1327 -16.1327
   -16.1291 -16.1291 -16.1290 -16.1290 -16.1033 -16.1033 -16.1032 -16.1032
   -16.1029 -16.1029 -16.1024 -16.1024 -16.1024 -16.1024 -16.1003 -16.1003
   -16.0897 -16.0897 -16.0897 -16.0897 -16.0859 -16.0859  -6.7602  -6.7372
    -6.3507  -6.3318  -5.9509  -5.9483  -3.5832  -3.4869  -3.4629  -3.3916
    -3.3740  -3.2200  -3.1129  -3.1027  -3.0692  -3.0556  -3.0343  -3.0134
    -2.9009  -2.8778  -2.3689  -2.2411  -2.2137  -2.1201  -2.1024  -1.9939
    -1.9529  -1.9157  -1.6452  -1.4259  -0.7056  -0.5468  -0.3720  -0.3134
     1.0132   1.2126   1.2307   1.3177   1.3579   1.3789   1.5381   1.7006
     1.7037   1.7423   1.7637   1.7929   1.9476   2.0667

          k = 0.0000 0.1667-0.3266 ( 94230 PWs)   bands (ev):

   -55.0499 -55.0499 -54.5596 -54.5596 -54.5596 -54.5596 -54.5596 -54.5596
   -54.5596 -54.5596 -26.9615 -26.9615 -26.9408 -26.9408 -26.9408 -26.9408
   -26.4738 -26.4738 -26.4735 -26.4735 -26.4734 -26.4734 -26.4731 -26.4731
   -26.4581 -26.4581 -26.4577 -26.4577 -26.4576 -26.4576 -26.4573 -26.4573
   -26.4502 -26.4502 -26.4501 -26.4501 -26.4500 -26.4500 -26.4499 -26.4499
   -16.1409 -16.1409 -16.1407 -16.1407 -16.1327 -16.1327 -16.1327 -16.1327
   -16.1291 -16.1291 -16.1290 -16.1290 -16.1033 -16.1033 -16.1032 -16.1032
   -16.1029 -16.1029 -16.1024 -16.1024 -16.1024 -16.1024 -16.1003 -16.1003
   -16.0897 -16.0897 -16.0897 -16.0897 -16.0859 -16.0859  -6.7488  -6.7488
    -6.3413  -6.3413  -5.9497  -5.9497  -3.4760  -3.4760  -3.4327  -3.4327
    -3.3782  -3.3782  -3.0947  -3.0947  -3.0626  -3.0626  -2.9869  -2.9869
    -2.9544  -2.9544  -2.2155  -2.2155  -2.1695  -2.1695  -2.0703  -2.0703
    -1.9434  -1.9434  -1.5502  -1.5502  -0.6027  -0.6027  -0.3871  -0.3871
     1.1414   1.1414   1.2626   1.2626   1.3109   1.3109   1.6940   1.6940
     1.7542   1.7542   1.8251   1.8251   2.0483   2.0483

          k = 0.0000 0.3333 0.0000 ( 94253 PWs)   bands (ev):

   -55.0499 -55.0499 -54.5596 -54.5596 -54.5596 -54.5596 -54.5596 -54.5596
   -54.5596 -54.5596 -26.9615 -26.9615 -26.9408 -26.9408 -26.9408 -26.9408
   -26.4737 -26.4737 -26.4735 -26.4735 -26.4733 -26.4733 -26.4731 -26.4731
   -26.4580 -26.4580 -26.4577 -26.4577 -26.4575 -26.4575 -26.4573 -26.4573
   -26.4501 -26.4501 -26.4501 -26.4501 -26.4500 -26.4500 -26.4500 -26.4500
   -16.1409 -16.1409 -16.1407 -16.1407 -16.1327 -16.1327 -16.1327 -16.1327
   -16.1291 -16.1291 -16.1290 -16.1290 -16.1033 -16.1033 -16.1032 -16.1032
   -16.1030 -16.1030 -16.1024 -16.1024 -16.1024 -16.1024 -16.1003 -16.1003
   -16.0897 -16.0897 -16.0897 -16.0897 -16.0859 -16.0859  -6.7068  -6.6812
    -6.3869  -6.3631  -6.0192  -6.0184  -3.5551  -3.4581  -3.4405  -3.2810
    -3.2678  -3.2341  -3.1519  -3.0895  -3.0345  -3.0115  -2.9239  -2.9232
    -2.9153  -2.8792  -2.3812  -2.2422  -2.2182  -2.1904  -2.0818  -2.0809
    -2.0737  -2.0153  -1.4677  -1.3420  -1.0278  -0.9073  -0.4387  -0.4162
     1.0422   1.2218   1.3338   1.3522   1.3528   1.5282   1.5486   1.6468
     1.6912   1.7252   1.7620   1.7854   2.1027   2.2905

          k = 0.0000 0.3333 0.1633 ( 94281 PWs)   bands (ev):

   -55.0499 -55.0499 -54.5596 -54.5596 -54.5596 -54.5596 -54.5596 -54.5596
   -54.5596 -54.5596 -26.9615 -26.9615 -26.9408 -26.9408 -26.9408 -26.9408
   -26.4737 -26.4737 -26.4735 -26.4735 -26.4733 -26.4733 -26.4731 -26.4731
   -26.4580 -26.4580 -26.4577 -26.4577 -26.4575 -26.4575 -26.4573 -26.4573
   -26.4501 -26.4501 -26.4501 -26.4501 -26.4500 -26.4500 -26.4500 -26.4500
   -16.1409 -16.1409 -16.1407 -16.1407 -16.1327 -16.1327 -16.1327 -16.1327
   -16.1291 -16.1291 -16.1290 -16.1290 -16.1033 -16.1033 -16.1032 -16.1032
   -16.1030 -16.1030 -16.1024 -16.1024 -16.1024 -16.1024 -16.1003 -16.1003
   -16.0897 -16.0897 -16.0897 -16.0897 -16.0859 -16.0859  -6.7030  -6.6849
    -6.3836  -6.3668  -6.0192  -6.0186  -3.5139  -3.4571  -3.4364  -3.3119
    -3.2370  -3.2114  -3.1514  -3.1361  -3.0809  -3.0033  -2.9734  -2.9275
    -2.9049  -2.8784  -2.3317  -2.2337  -2.1862  -2.1859  -2.1406  -2.1204
    -2.0435  -1.9559  -1.4573  -1.3643  -0.9996  -0.9141  -0.4681  -0.4489
     1.0609   1.2220   1.2618   1.2967   1.4204   1.4395   1.6226   1.6768
     1.7251   1.7494   1.7607   1.8808   2.0950   2.3881

          k = 0.0000 0.3333-0.3266 ( 94162 PWs)   bands (ev):

   -55.0499 -55.0499 -54.5596 -54.5596 -54.5596 -54.5596 -54.5596 -54.5596
   -54.5596 -54.5596 -26.9615 -26.9615 -26.9408 -26.9408 -26.9408 -26.9408
   -26.4737 -26.4737 -26.4735 -26.4735 -26.4733 -26.4733 -26.4731 -26.4731
   -26.4580 -26.4580 -26.4577 -26.4577 -26.4575 -26.4575 -26.4573 -26.4573
   -26.4501 -26.4501 -26.4501 -26.4501 -26.4500 -26.4500 -26.4500 -26.4500
   -16.1409 -16.1409 -16.1407 -16.1407 -16.1327 -16.1327 -16.1327 -16.1327
   -16.1291 -16.1291 -16.1290 -16.1290 -16.1033 -16.1033 -16.1032 -16.1032
   -16.1030 -16.1030 -16.1024 -16.1024 -16.1024 -16.1024 -16.1003 -16.1003
   -16.0897 -16.0897 -16.0897 -16.0897 -16.0859 -16.0859  -6.6939  -6.6939
    -6.3754  -6.3754  -6.0190  -6.0190  -3.4607  -3.4607  -3.3798  -3.3798
    -3.2269  -3.2269  -3.1494  -3.1494  -3.0708  -3.0708  -2.9713  -2.9713
    -2.8774  -2.8774  -2.2641  -2.2641  -2.1750  -2.1750  -2.1538  -2.1538
    -1.9676  -1.9676  -1.4171  -1.4171  -0.9445  -0.9445  -0.4907  -0.4907
     1.1388   1.1388   1.2513   1.2513   1.4057   1.4057   1.6797   1.6797
     1.7641   1.7641   1.8839   1.8839   2.2628   2.2628

          k = 0.0000-0.5000 0.0000 ( 94248 PWs)   bands (ev):

   -55.0499 -55.0499 -54.5596 -54.5596 -54.5596 -54.5596 -54.5596 -54.5596
   -54.5596 -54.5596 -26.9615 -26.9615 -26.9408 -26.9408 -26.9408 -26.9408
   -26.4736 -26.4736 -26.4736 -26.4736 -26.4732 -26.4732 -26.4732 -26.4732
   -26.4579 -26.4579 -26.4579 -26.4579 -26.4574 -26.4574 -26.4574 -26.4574
   -26.4501 -26.4501 -26.4501 -26.4501 -26.4500 -26.4500 -26.4500 -26.4500
   -16.1409 -16.1409 -16.1406 -16.1406 -16.1327 -16.1327 -16.1327 -16.1327
   -16.1291 -16.1291 -16.1291 -16.1291 -16.1033 -16.1033 -16.1032 -16.1032
   -16.1030 -16.1030 -16.1024 -16.1024 -16.1024 -16.1024 -16.1003 -16.1003
   -16.0897 -16.0897 -16.0897 -16.0897 -16.0859 -16.0859  -6.6574  -6.6574
    -6.4033  -6.4033  -6.0499  -6.0499  -3.4346  -3.4346  -3.4300  -3.4300
    -3.2461  -3.2461  -3.1376  -3.1376  -2.9801  -2.9801  -2.9473  -2.9473
    -2.6096  -2.6096  -2.4999  -2.4999  -2.2175  -2.2175  -2.1119  -2.1119
    -2.0776  -2.0776  -1.2607  -1.2607  -1.1930  -1.1930  -0.4768  -0.4768
     1.1840   1.1840   1.2836   1.2836   1.4564   1.4564   1.6420   1.6420
     1.7256   1.7256   1.9311   1.9311   1.9845   1.9845

          k = 0.0000-0.5000 0.1633 ( 94220 PWs)   bands (ev):

   -55.0499 -55.0499 -54.5596 -54.5596 -54.5596 -54.5596 -54.5596 -54.5596
   -54.5596 -54.5596 -26.9615 -26.9615 -26.9408 -26.9408 -26.9408 -26.9408
   -26.4736 -26.4736 -26.4736 -26.4736 -26.4732 -26.4732 -26.4732 -26.4732
   -26.4579 -26.4579 -26.4579 -26.4579 -26.4574 -26.4574 -26.4574 -26.4574
   -26.4501 -26.4501 -26.4501 -26.4501 -26.4500 -26.4500 -26.4500 -26.4500
   -16.1409 -16.1409 -16.1406 -16.1406 -16.1327 -16.1327 -16.1327 -16.1327
   -16.1291 -16.1291 -16.1291 -16.1291 -16.1033 -16.1033 -16.1032 -16.1032
   -16.1030 -16.1030 -16.1024 -16.1024 -16.1024 -16.1024 -16.1003 -16.1003
   -16.0897 -16.0897 -16.0897 -16.0897 -16.0859 -16.0859  -6.6570  -6.6570
    -6.4038  -6.4038  -6.0499  -6.0499  -3.4496  -3.4496  -3.3840  -3.3840
    -3.2376  -3.2376  -3.1534  -3.1534  -3.0239  -3.0239  -2.9556  -2.9556
    -2.5923  -2.5923  -2.5013  -2.5013  -2.2341  -2.2341  -2.1491  -2.1491
    -1.9991  -1.9991  -1.2486  -1.2486  -1.1977  -1.1977  -0.5044  -0.5044
     1.1543   1.1543   1.2694   1.2694   1.4644   1.4644   1.6426   1.6426
     1.7435   1.7435   1.9249   1.9249   2.1200   2.1200

          k = 0.0000-0.5000-0.3266 ( 94192 PWs)   bands (ev):

   -55.0499 -55.0499 -54.5596 -54.5596 -54.5596 -54.5596 -54.5596 -54.5596
   -54.5596 -54.5596 -26.9615 -26.9615 -26.9408 -26.9408 -26.9408 -26.9408
[...]

     iteration # 61     ecut=    75.00 Ry     beta= 0.70
     Davidson diagonalization with overlap
     ethr =  9.22E-09,  avg # of iterations =  1.0

     total cpu time spent up to now is     1018.7 secs

     WARNING: integrated charge=   196.00837663, expected=   196.00000000

     total energy              =   -2651.24594117 Ry
     estimated scf accuracy    <       0.00001813 Ry

     iteration # 62     ecut=    75.00 Ry     beta= 0.70
     Davidson diagonalization with overlap
     ethr =  9.22E-09,  avg # of iterations =  1.0

     total cpu time spent up to now is     1027.3 secs

     WARNING: integrated charge=   196.00839735, expected=   196.00000000

     total energy              =   -2651.24594148 Ry
     estimated scf accuracy    <       0.00001797 Ry

     iteration # 63     ecut=    75.00 Ry     beta= 0.70
     Davidson diagonalization with overlap
     ethr =  9.17E-09,  avg # of iterations =  1.0
     Minimization algorithm failed to find Fermi energy: reverting to bisection
     Possible cause: smearing is larger than the electronic band-gap.

     total cpu time spent up to now is     1035.6 secs

     WARNING: integrated charge=   196.00838257, expected=   196.00000000

     total energy              =   -2651.24417975 Ry
     estimated scf accuracy    <       0.00048853 Ry

     iteration # 64     ecut=    75.00 Ry     beta= 0.70
     Davidson diagonalization with overlap
     ethr =  9.17E-09,  avg # of iterations =  1.0

     total cpu time spent up to now is     1043.8 secs

     WARNING: integrated charge=   196.00838575, expected=   196.00000000

     total energy              =   -2651.24594164 Ry
     estimated scf accuracy    <       0.00001791 Ry

     iteration # 65     ecut=    75.00 Ry     beta= 0.70
     Davidson diagonalization with overlap
     ethr =  9.14E-09,  avg # of iterations =  1.0

     total cpu time spent up to now is     1052.2 secs

     WARNING: integrated charge=   196.00839050, expected=   196.00000000

     total energy              =   -2651.24594178 Ry
     estimated scf accuracy    <       0.00001785 Ry

     iteration # 66     ecut=    75.00 Ry     beta= 0.70
     Davidson diagonalization with overlap
     ethr =  9.11E-09,  avg # of iterations =  1.0
     Minimization algorithm failed to find Fermi energy: reverting to bisection
     Possible cause: smearing is larger than the electronic band-gap.

     total cpu time spent up to now is     1060.6 secs

     WARNING: integrated charge=   196.00839240, expected=   196.00000000

     total energy              =   -2651.24417997 Ry
     estimated scf accuracy    <       0.00048796 Ry

     iteration # 67     ecut=    75.00 Ry     beta= 0.70
     Davidson diagonalization with overlap
     ethr =  9.11E-09,  avg # of iterations =  1.0
     Minimization algorithm failed to find Fermi energy: reverting to bisection
     Possible cause: smearing is larger than the electronic band-gap.

     total cpu time spent up to now is     1068.9 secs

     WARNING: integrated charge=   196.00837273, expected=   196.00000000

     total energy              =   -2651.24417951 Ry
     estimated scf accuracy    <       0.00048810 Ry

     iteration # 68     ecut=    75.00 Ry     beta= 0.70
     Davidson diagonalization with overlap
     ethr =  9.11E-09,  avg # of iterations =  1.0

     total cpu time spent up to now is     1077.3 secs

     WARNING: integrated charge=   196.00838489, expected=   196.00000000

     total energy              =   -2651.24594119 Ry
     estimated scf accuracy    <       0.00001815 Ry

     iteration # 69     ecut=    75.00 Ry     beta= 0.70
     Davidson diagonalization with overlap
     ethr =  9.11E-09,  avg # of iterations =  1.0

     total cpu time spent up to now is     1085.5 secs

     WARNING: integrated charge=   196.00838218, expected=   196.00000000

     total energy              =   -2651.24594167 Ry
     estimated scf accuracy    <       0.00001794 Ry

     iteration # 70     ecut=    75.00 Ry     beta= 0.70
     Davidson diagonalization with overlap
     ethr =  9.11E-09,  avg # of iterations =  1.0

     total cpu time spent up to now is     1093.8 secs

     WARNING: integrated charge=   196.00838494, expected=   196.00000000

     total energy              =   -2651.24594150 Ry
     estimated scf accuracy    <       0.00001801 Ry

     iteration # 71     ecut=    75.00 Ry     beta= 0.70
     Davidson diagonalization with overlap
     ethr =  9.11E-09,  avg # of iterations =  1.0

     total cpu time spent up to now is     1102.2 secs

     WARNING: integrated charge=   196.00838483, expected=   196.00000000

     total energy              =   -2651.24594159 Ry
     estimated scf accuracy    <       0.00001797 Ry

     iteration # 72     ecut=    75.00 Ry     beta= 0.70
     Davidson diagonalization with overlap
     ethr =  9.11E-09,  avg # of iterations =  1.0

     total cpu time spent up to now is     1110.6 secs

     WARNING: integrated charge=   196.00838906, expected=   196.00000000

     total energy              =   -2651.24594154 Ry
     estimated scf accuracy    <       0.00001799 Ry

     iteration # 73     ecut=    75.00 Ry     beta= 0.70
     Davidson diagonalization with overlap
     ethr =  9.11E-09,  avg # of iterations =  1.0

     total cpu time spent up to now is     1119.0 secs

     WARNING: integrated charge=   196.00839068, expected=   196.00000000

     total energy              =   -2651.24594168 Ry
     estimated scf accuracy    <       0.00001792 Ry

     iteration # 74     ecut=    75.00 Ry     beta= 0.70
     Davidson diagonalization with overlap
     ethr =  9.11E-09,  avg # of iterations =  1.0

     total cpu time spent up to now is     1127.1 secs

     WARNING: integrated charge=   196.00839951, expected=   196.00000000

     total energy              =   -2651.24594169 Ry
     estimated scf accuracy    <       0.00001789 Ry

     iteration # 75     ecut=    75.00 Ry     beta= 0.70
     Davidson diagonalization with overlap
     ethr =  9.11E-09,  avg # of iterations =  1.0
     Minimization algorithm failed to find Fermi energy: reverting to bisection
     Possible cause: smearing is larger than the electronic band-gap.

     total cpu time spent up to now is     1135.5 secs

     WARNING: integrated charge=   196.00839159, expected=   196.00000000

     total energy              =   -2651.24417981 Ry
     estimated scf accuracy    <       0.00048811 Ry

     iteration # 76     ecut=    75.00 Ry     beta= 0.70
     Davidson diagonalization with overlap
     ethr =  9.11E-09,  avg # of iterations =  1.0

     total cpu time spent up to now is     1143.9 secs

     WARNING: integrated charge=   196.00839187, expected=   196.00000000

     total energy              =   -2651.24594174 Ry
     estimated scf accuracy    <       0.00001787 Ry

     iteration # 77     ecut=    75.00 Ry     beta= 0.70
     Davidson diagonalization with overlap
     ethr =  9.11E-09,  avg # of iterations =  1.0

     total cpu time spent up to now is     1152.5 secs

     WARNING: integrated charge=   196.00838882, expected=   196.00000000

     total energy              =   -2651.24594178 Ry
     estimated scf accuracy    <       0.00001786 Ry

     iteration # 78     ecut=    75.00 Ry     beta= 0.70
     Davidson diagonalization with overlap
     ethr =  9.11E-09,  avg # of iterations =  1.0

     total cpu time spent up to now is     1160.9 secs

     WARNING: integrated charge=   196.00839048, expected=   196.00000000

     total energy              =   -2651.24594169 Ry
     estimated scf accuracy    <       0.00001790 Ry

     iteration # 79     ecut=    75.00 Ry     beta= 0.70
     Davidson diagonalization with overlap
     ethr =  9.11E-09,  avg # of iterations =  1.0

     total cpu time spent up to now is     1169.1 secs

     WARNING: integrated charge=   196.00839035, expected=   196.00000000

     total energy              =   -2651.24594173 Ry
     estimated scf accuracy    <       0.00001788 Ry

     iteration # 80     ecut=    75.00 Ry     beta= 0.70
     Davidson diagonalization with overlap
     ethr =  9.11E-09,  avg # of iterations =  1.0

     total cpu time spent up to now is     1177.4 secs

     WARNING: integrated charge=   196.00839221, expected=   196.00000000

     total energy              =   -2651.24594173 Ry
     estimated scf accuracy    <       0.00001788 Ry

     iteration # 81     ecut=    75.00 Ry     beta= 0.70
     Davidson diagonalization with overlap
     ethr =  9.11E-09,  avg # of iterations =  1.0

     total cpu time spent up to now is     1185.8 secs

     WARNING: integrated charge=   196.00839385, expected=   196.00000000

     total energy              =   -2651.24594176 Ry
     estimated scf accuracy    <       0.00001787 Ry

     iteration # 82     ecut=    75.00 Ry     beta= 0.70
     Davidson diagonalization with overlap
     ethr =  9.11E-09,  avg # of iterations =  1.0
     Minimization algorithm failed to find Fermi energy: reverting to bisection
     Possible cause: smearing is larger than the electronic band-gap.

     total cpu time spent up to now is     1194.1 secs

     WARNING: integrated charge=   196.00839427, expected=   196.00000000

     total energy              =   -2651.24417985 Ry
     estimated scf accuracy    <       0.00048751 Ry

     iteration # 83     ecut=    75.00 Ry     beta= 0.70
     Davidson diagonalization with overlap
     ethr =  9.11E-09,  avg # of iterations =  1.0
     Minimization algorithm failed to find Fermi energy: reverting to bisection
     Possible cause: smearing is larger than the electronic band-gap.

     total cpu time spent up to now is     1202.6 secs

     WARNING: integrated charge=   196.00839401, expected=   196.00000000

     total energy              =   -2651.24417984 Ry
     estimated scf accuracy    <       0.00048754 Ry

     iteration # 84     ecut=    75.00 Ry     beta= 0.70
     Davidson diagonalization with overlap
     ethr =  9.11E-09,  avg # of iterations =  1.0

     total cpu time spent up to now is     1210.8 secs

     WARNING: integrated charge=   196.00839357, expected=   196.00000000

     total energy              =   -2651.24594181 Ry
     estimated scf accuracy    <       0.00001785 Ry

     iteration # 85     ecut=    75.00 Ry     beta= 0.70
     Davidson diagonalization with overlap
     ethr =  9.10E-09,  avg # of iterations =  1.0

     total cpu time spent up to now is     1219.1 secs

     WARNING: integrated charge=   196.00839419, expected=   196.00000000

     total energy              =   -2651.24594178 Ry
     estimated scf accuracy    <       0.00001785 Ry

     iteration # 86     ecut=    75.00 Ry     beta= 0.70
     Davidson diagonalization with overlap
     ethr =  9.10E-09,  avg # of iterations =  1.0
     Minimization algorithm failed to find Fermi energy: reverting to bisection
     Possible cause: smearing is larger than the electronic band-gap.

     total cpu time spent up to now is     1227.5 secs

     WARNING: integrated charge=   196.00839338, expected=   196.00000000

     total energy              =   -2651.24417984 Ry
     estimated scf accuracy    <       0.00048753 Ry

     iteration # 87     ecut=    75.00 Ry     beta= 0.70
     Davidson diagonalization with overlap
     ethr =  9.10E-09,  avg # of iterations =  1.0

     total cpu time spent up to now is     1235.9 secs

     WARNING: integrated charge=   196.00839329, expected=   196.00000000

     total energy              =   -2651.24594179 Ry
     estimated scf accuracy    <       0.00001785 Ry

     iteration # 88     ecut=    75.00 Ry     beta= 0.70
     Davidson diagonalization with overlap
     ethr =  9.10E-09,  avg # of iterations =  1.0

     total cpu time spent up to now is     1244.3 secs

     WARNING: integrated charge=   196.00839290, expected=   196.00000000

     total energy              =   -2651.24594179 Ry
     estimated scf accuracy    <       0.00001785 Ry

     iteration # 89     ecut=    75.00 Ry     beta= 0.70
     Davidson diagonalization with overlap
     ethr =  9.10E-09,  avg # of iterations =  1.0

     total cpu time spent up to now is     1252.6 secs

     WARNING: integrated charge=   196.00839096, expected=   196.00000000

     total energy              =   -2651.24594177 Ry
     estimated scf accuracy    <       0.00001786 Ry

     iteration # 90     ecut=    75.00 Ry     beta= 0.70
     Davidson diagonalization with overlap
     ethr =  9.10E-09,  avg # of iterations =  1.0

     total cpu time spent up to now is     1260.9 secs

     WARNING: integrated charge=   196.00838838, expected=   196.00000000

     total energy              =   -2651.24594172 Ry
     estimated scf accuracy    <       0.00001789 Ry

     iteration # 91     ecut=    75.00 Ry     beta= 0.70
     Davidson diagonalization with overlap
     ethr =  9.10E-09,  avg # of iterations =  1.0

     total cpu time spent up to now is     1269.4 secs

     WARNING: integrated charge=   196.00838715, expected=   196.00000000

     total energy              =   -2651.24594163 Ry
     estimated scf accuracy    <       0.00001793 Ry

     iteration # 92     ecut=    75.00 Ry     beta= 0.70
     Davidson diagonalization with overlap
     ethr =  9.10E-09,  avg # of iterations =  1.0

     total cpu time spent up to now is     1285.3 secs

     WARNING: integrated charge=   196.00839105, expected=   196.00000000

     total energy              =   -2651.24594158 Ry
     estimated scf accuracy    <       0.00001795 Ry

     iteration # 93     ecut=    75.00 Ry     beta= 0.70
     Davidson diagonalization with overlap
     ethr =  9.10E-09,  avg # of iterations =  1.0

     total cpu time spent up to now is     1294.1 secs

     WARNING: integrated charge=   196.00839186, expected=   196.00000000

     total energy              =   -2651.24594171 Ry
     estimated scf accuracy    <       0.00001790 Ry

     iteration # 94     ecut=    75.00 Ry     beta= 0.70
     Davidson diagonalization with overlap
     ethr =  9.10E-09,  avg # of iterations =  1.0

     total cpu time spent up to now is     1302.5 secs

     WARNING: integrated charge=   196.00839270, expected=   196.00000000

     total energy              =   -2651.24594173 Ry
     estimated scf accuracy    <       0.00001788 Ry

     iteration # 95     ecut=    75.00 Ry     beta= 0.70
     Davidson diagonalization with overlap
     ethr =  9.10E-09,  avg # of iterations =  1.0

     total cpu time spent up to now is     1310.8 secs

     WARNING: integrated charge=   196.01057535, expected=   196.00000000

     total energy              =   -2651.24593529 Ry
     estimated scf accuracy    <       0.00001786 Ry

     iteration # 96     ecut=    75.00 Ry     beta= 0.70
     Davidson diagonalization with overlap
     ethr =  9.10E-09,  avg # of iterations =  2.0
     Minimization algorithm failed to find Fermi energy: reverting to bisection
     Possible cause: smearing is larger than the electronic band-gap.

     total cpu time spent up to now is     1320.0 secs

     WARNING: integrated charge=   196.00861299, expected=   196.00000000

     total energy              =   -2651.24418246 Ry
     estimated scf accuracy    <       0.00070756 Ry

     iteration # 97     ecut=    75.00 Ry     beta= 0.70
     Davidson diagonalization with overlap
     ethr =  9.10E-09,  avg # of iterations =  2.0
     Minimization algorithm failed to find Fermi energy: reverting to bisection
     Possible cause: smearing is larger than the electronic band-gap.

     total cpu time spent up to now is     1329.1 secs

     WARNING: integrated charge=   196.00846917, expected=   196.00000000

     total energy              =   -2651.24418140 Ry
     estimated scf accuracy    <       0.00051780 Ry

     iteration # 98     ecut=    75.00 Ry     beta= 0.70
     Davidson diagonalization with overlap
     ethr =  9.10E-09,  avg # of iterations =  1.0
     Minimization algorithm failed to find Fermi energy: reverting to bisection
     Possible cause: smearing is larger than the electronic band-gap.

     total cpu time spent up to now is     1337.4 secs

     WARNING: integrated charge=   196.00840524, expected=   196.00000000

     total energy              =   -2651.24417999 Ry
     estimated scf accuracy    <       0.00050047 Ry

     iteration # 99     ecut=    75.00 Ry     beta= 0.70
     Davidson diagonalization with overlap
     ethr =  9.10E-09,  avg # of iterations =  1.0
     Minimization algorithm failed to find Fermi energy: reverting to bisection
     Possible cause: smearing is larger than the electronic band-gap.

     total cpu time spent up to now is     1345.7 secs

     WARNING: integrated charge=   196.00837832, expected=   196.00000000

     total energy              =   -2651.24417943 Ry
     estimated scf accuracy    <       0.00049210 Ry

     iteration #100     ecut=    75.00 Ry     beta= 0.70
     Davidson diagonalization with overlap
     ethr =  9.10E-09,  avg # of iterations =  1.0

     total cpu time spent up to now is     1354.0 secs

     WARNING: integrated charge=   196.00839580, expected=   196.00000000

     total energy              =   -2651.24594098 Ry
     estimated scf accuracy    <       0.00001763 Ry

     End of self-consistent calculation

     convergence NOT achieved after 100 iterations: stopping

     Writing config to output data dir ./na5ga3h14.save/
 
     init_run     :      4.77s CPU      5.00s WALL (       1 calls)
     electrons    :   1299.54s CPU   1313.97s WALL (       4 calls)
     update_pot   :      0.95s CPU      0.98s WALL (       3 calls)
     forces       :      4.08s CPU      4.17s WALL (       3 calls)
     stress       :     28.30s CPU     28.49s WALL (       3 calls)

     Called by init_run:
     wfcinit      :      3.29s CPU      3.39s WALL (       1 calls)
     potinit      :      0.27s CPU      0.28s WALL (       1 calls)
     hinit0       :      0.21s CPU      0.23s WALL (       1 calls)

     Called by electrons:
     c_bands      :   1086.01s CPU   1094.81s WALL (     134 calls)
     sum_band     :    194.51s CPU    197.69s WALL (     134 calls)
     v_of_rho     :      4.77s CPU      4.83s WALL (     138 calls)
     newd         :      5.44s CPU      6.77s WALL (     138 calls)
     PAW_pot      :      6.79s CPU      7.46s WALL (     141 calls)
     mix_rho      :      1.38s CPU      1.42s WALL (     134 calls)

     Called by c_bands:
     init_us_2    :     14.24s CPU     14.36s WALL (    4170 calls)
     init_us_2:cp :     14.21s CPU     14.34s WALL (    4170 calls)
     cegterg      :   1010.67s CPU   1017.88s WALL (    2010 calls)

     Called by *egterg:
     cdiaghg      :     85.10s CPU     85.52s WALL (    6810 calls)
     h_psi        :    753.91s CPU    759.74s WALL (    6870 calls)
     s_psi        :     40.44s CPU     40.66s WALL (    6870 calls)
     g_psi        :      2.09s CPU      2.11s WALL (    4845 calls)

     Called by h_psi:
     h_psi:calbec :     49.85s CPU     50.17s WALL (    6870 calls)
     vloc_psi     :    655.73s CPU    660.95s WALL (    6870 calls)
     add_vuspsi   :     42.67s CPU     42.91s WALL (    6870 calls)

     General routines
     calbec       :     75.14s CPU     75.60s WALL (    9150 calls)
     fft          :      3.86s CPU      3.91s WALL (    1866 calls)
     ffts         :      0.50s CPU      0.50s WALL (     272 calls)
     fftw         :    763.51s CPU    769.77s WALL ( 1278284 calls)
     interpolate  :      0.60s CPU      0.61s WALL (     138 calls)
     davcio       :      0.00s CPU      0.10s WALL (      33 calls)
 
     Parallel routines
 
     PWSCF        :  22m19.02s CPU  22m34.38s WALL

 
   This run was terminated on:   9:43:46   1Dec2023            

=------------------------------------------------------------------------------=
   JOB DONE.
=------------------------------------------------------------------------------=
Job execution finished at: Fri Dec  1 09:43:47 IST 2023
