==========================================
SLURM_CLUSTER_NAME = paramganga
SLURM_ARRAY_JOB_ID = 
SLURM_ARRAY_TASK_ID = 
SLURM_ARRAY_TASK_COUNT = 
SLURM_ARRAY_TASK_MAX = 
SLURM_ARRAY_TASK_MIN = 
SLURM_JOB_ACCOUNT = iitr
SLURM_JOB_ID = 174908
SLURM_JOB_NAME = 19280
SLURM_JOB_NODELIST = cn[156-158]
SLURM_JOB_USER = garima.iitr
SLURM_JOB_UID = 38339
SLURM_JOB_PARTITION = small
SLURM_TASK_PID = 30720
SLURM_SUBMIT_DIR = /home/garima.iitr/.cache/.es/compmat/bh3
SLURM_CPUS_ON_NODE = 48
SLURM_NTASKS = 144
SLURM_TASK_PID = 30720
==========================================
cn156
 
:: initializing oneAPI environment ...
   slurm_script: BASH_VERSION = 4.2.46(2)-release
   args: Using "$@" for setvars.sh arguments: 
:: advisor -- latest
:: ccl -- latest
:: clck -- latest
:: compiler -- latest
:: dal -- latest
:: debugger -- latest
:: dev-utilities -- latest
:: dnnl -- latest
:: dpcpp-ct -- latest
:: dpl -- latest
:: inspector -- latest
:: intelpython -- latest
:: ipp -- latest
:: ippcp -- latest
:: ipp -- latest
:: itac -- latest
:: mkl -- latest
:: mpi -- latest
:: tbb -- latest
:: vpl -- latest
:: vtune -- latest
:: oneAPI environment initialized ::
 
Job execution start: Fri Dec  1 12:21:16 IST 2023
Job submitted by garima.iitr
The job ID is:174908

     Program PWSCF v.7.1 starts on  1Dec2023 at 12:21:19 

     This program is part of the open-source Quantum ESPRESSO suite
     for quantum simulation of materials; please cite
         "P. Giannozzi et al., J. Phys.:Condens. Matter 21 395502 (2009);
         "P. Giannozzi et al., J. Phys.:Condens. Matter 29 465901 (2017);
         "P. Giannozzi et al., J. Chem. Phys. 152 154105 (2020);
          URL http://www.quantum-espresso.org", 
     in publications or presentations arising from this work. More details at
     http://www.quantum-espresso.org/quote

     Parallel version (MPI & OpenMP), running on     144 processor cores
     Number of MPI processes:               144
     Threads/MPI process:                     1

     MPI processes distributed on     3 nodes
     169801 MiB available memory on the printing compute node when the environment starts
 
     Reading input from bh3.in

     Current dimensions of program PWSCF are:
     Max number of different atomic species (ntypx) = 10
     Max number of k-points (npk) =  40000
     Max angular momentum in pseudopotentials (lmaxx) =  4

     IMPORTANT: XC functional enforced from input :
     Exchange-correlation= PBE
                           (   1   4   3   4   0   0   0)
     Any further DFT definition will be discarded
     Please, verify this is what you really want

     Message from routine setup:
     using ibrav=0 with symmetry is DISCOURAGED, use correct ibrav instead
 
     K-points division:     npool     =       4
     R & G space division:  proc/nbgrp/npool/nimage =      36
     Subspace diagonalization in iterative solution of the eigenvalue problem:
     a serial algorithm will be used

 
     Parallelization info
     --------------------
     sticks:   dense  smooth     PW     G-vecs:    dense   smooth      PW
     Min          78      63     17                 3377     2418     355
     Max          80      64     18                 3380     2420     362
     Sum        2821    2273    633               121635    87073   12857
 
     Using Slab Decomposition
 


     bravais-lattice index     =            0
     lattice parameter (alat)  =       8.1081  a.u.
     unit-cell volume          =     992.9145 (a.u.)^3
     number of atoms/cell      =           16
     number of atomic types    =            2
     number of electrons       =        24.00
     number of Kohn-Sham states=           16
     kinetic-energy cutoff     =      75.0000  Ry
     charge density cutoff     =     375.0000  Ry
     scf convergence threshold =      1.0E-08
     mixing beta               =       0.7000
     number of iterations used =            8  plain     mixing
     energy convergence thresh.=      1.0E-04
     force convergence thresh. =      1.0E-03
     press convergence thresh. =      5.0E-01
     Exchange-correlation= PBE
                           (   1   4   3   4   0   0   0)
     nstep                     =           50


     celldm(1)=   8.108059  celldm(2)=   0.000000  celldm(3)=   0.000000
     celldm(4)=   0.000000  celldm(5)=   0.000000  celldm(6)=   0.000000

     crystal axes: (cart. coord. in units of alat)
               a(1) = (   1.000000   0.000000   0.000000 )  
               a(2) = (   0.000000   1.442472   0.000000 )  
               a(3) = (  -0.644894   0.000000   1.291379 )  

     reciprocal axes: (cart. coord. in units 2 pi/alat)
               b(1) = (  1.000000  0.000000  0.499384 )  
               b(2) = (  0.000000  0.693254  0.000000 )  
               b(3) = (  0.000000  0.000000  0.774366 )  


     PseudoPot. # 1 for B  read from file:
     /home/garima.iitr/.cache/.es/compmat/bh3/b_pbe_v1.4.uspp.F.UPF
     MD5 check sum: cc6de2960df11db49a60e589f9ebb39b
     Pseudo is Ultrasoft + core correction, Zval =  3.0
     Generated by new atomic code, or converted to UPF format
     Using radial grid of  781 points,  4 beta functions with: 
                l(1) =   0
                l(2) =   0
                l(3) =   1
                l(4) =   1
     Q(r) pseudized with  8 coefficients,  rinner =    1.100   1.100   1.100


     PseudoPot. # 2 for H  read from file:
     /home/garima.iitr/.cache/.es/compmat/bh3/H.pbe-rrkjus_psl.1.0.0.UPF
     MD5 check sum: 3f4114867bd07edc7f1424d066fc1888
     Pseudo is Ultrasoft, Zval =  1.0
     Generated using &quot;atomic&quot; code by A. Dal Corso  v.6.3MaX
     Using radial grid of  929 points,  2 beta functions with: 
                l(1) =   0
                l(2) =   0
     Q(r) pseudized with 0 coefficients 


     atomic species   valence    mass     pseudopotential
        B              3.00    10.81350     B ( 1.00)
        H              1.00     1.00750     H ( 1.00)

      4 Sym. Ops., with inversion, found ( 2 have fractional translation)



   Cartesian axes

     site n.     atom                  positions (alat units)
         1           B   tau(   1) = (  -0.2733579   0.7842115   0.8320364  )
         2           B   tau(   2) = (   0.6284640   0.6582602   0.4593431  )
         3           B   tau(   3) = (   0.3060171   0.0629756   1.1050328  )
         4           B   tau(   4) = (   0.0490890   1.3794961   0.1863467  )
         5           H   tau(   5) = (  -0.1126418   0.0071850   0.4015661  )
         6           H   tau(   6) = (   0.4677480   1.4352867   0.8898134  )
         7           H   tau(   7) = (   0.7901949   0.7284209   0.2441236  )
         8           H   tau(   8) = (  -0.4350887   0.7140508   1.0472558  )
         9           H   tau(   9) = (   0.1261661   0.1905778   0.0312201  )
        10           H   tau(  10) = (   0.2289400   1.2518939   1.2601593  )
        11           H   tau(  11) = (   0.5513870   0.9118136   0.6144696  )
        12           H   tau(  12) = (  -0.1962808   0.5306581   0.6769098  )
        13           H   tau(  13) = (  -0.0455893   0.9398164   0.8671163  )
        14           H   tau(  14) = (   0.4006955   0.5026553   0.4242632  )
        15           H   tau(  15) = (   0.0782486   0.2185806   1.0699529  )
        16           H   tau(  16) = (   0.2768576   1.2238911   0.2214265  )

     number of k points=    48  Marzari-Vanderbilt smearing, width (Ry)=  0.0050
                       cart. coord. in units 2pi/alat
        k(    1) = (   0.0000000   0.0000000   0.0000000), wk =   0.0133333
        k(    2) = (   0.0000000   0.0000000   0.1548731), wk =   0.0266667
        k(    3) = (   0.0000000   0.0000000   0.3097463), wk =   0.0266667
        k(    4) = (   0.0000000   0.1386509   0.0000000), wk =   0.0266667
        k(    5) = (   0.0000000   0.1386509   0.1548731), wk =   0.0533333
        k(    6) = (   0.0000000   0.1386509   0.3097463), wk =   0.0533333
        k(    7) = (   0.0000000   0.2773018   0.0000000), wk =   0.0266667
        k(    8) = (   0.0000000   0.2773018   0.1548731), wk =   0.0533333
        k(    9) = (   0.0000000   0.2773018   0.3097463), wk =   0.0533333
        k(   10) = (   0.1666667   0.0000000   0.0832306), wk =   0.0266667
        k(   11) = (   0.1666667   0.0000000   0.2381038), wk =   0.0266667
        k(   12) = (   0.1666667   0.0000000   0.3929769), wk =   0.0266667
        k(   13) = (   0.1666667   0.0000000  -0.2265157), wk =   0.0266667
        k(   14) = (   0.1666667   0.0000000  -0.0716425), wk =   0.0266667
        k(   15) = (   0.1666667   0.1386509   0.0832306), wk =   0.0533333
        k(   16) = (   0.1666667   0.1386509   0.2381038), wk =   0.0533333
        k(   17) = (   0.1666667   0.1386509   0.3929769), wk =   0.0533333
        k(   18) = (   0.1666667   0.1386509  -0.2265157), wk =   0.0533333
        k(   19) = (   0.1666667   0.1386509  -0.0716425), wk =   0.0533333
        k(   20) = (   0.1666667   0.2773018   0.0832306), wk =   0.0533333
        k(   21) = (   0.1666667   0.2773018   0.2381038), wk =   0.0533333
        k(   22) = (   0.1666667   0.2773018   0.3929769), wk =   0.0533333
        k(   23) = (   0.1666667   0.2773018  -0.2265157), wk =   0.0533333
        k(   24) = (   0.1666667   0.2773018  -0.0716425), wk =   0.0533333
        k(   25) = (   0.3333333   0.0000000   0.1664612), wk =   0.0266667
        k(   26) = (   0.3333333   0.0000000   0.3213344), wk =   0.0266667
        k(   27) = (   0.3333333   0.0000000   0.4762075), wk =   0.0266667
        k(   28) = (   0.3333333   0.0000000  -0.1432851), wk =   0.0266667
        k(   29) = (   0.3333333   0.0000000   0.0115881), wk =   0.0266667
        k(   30) = (   0.3333333   0.1386509   0.1664612), wk =   0.0533333
        k(   31) = (   0.3333333   0.1386509   0.3213344), wk =   0.0533333
        k(   32) = (   0.3333333   0.1386509   0.4762075), wk =   0.0533333
        k(   33) = (   0.3333333   0.1386509  -0.1432851), wk =   0.0533333
        k(   34) = (   0.3333333   0.1386509   0.0115881), wk =   0.0533333
        k(   35) = (   0.3333333   0.2773018   0.1664612), wk =   0.0533333
        k(   36) = (   0.3333333   0.2773018   0.3213344), wk =   0.0533333
        k(   37) = (   0.3333333   0.2773018   0.4762075), wk =   0.0533333
        k(   38) = (   0.3333333   0.2773018  -0.1432851), wk =   0.0533333
        k(   39) = (   0.3333333   0.2773018   0.0115881), wk =   0.0533333
        k(   40) = (  -0.5000000   0.0000000  -0.2496918), wk =   0.0133333
        k(   41) = (  -0.5000000   0.0000000  -0.0948187), wk =   0.0266667
        k(   42) = (  -0.5000000   0.0000000   0.0600545), wk =   0.0266667
        k(   43) = (  -0.5000000   0.1386509  -0.2496918), wk =   0.0266667
        k(   44) = (  -0.5000000   0.1386509  -0.0948187), wk =   0.0533333
        k(   45) = (  -0.5000000   0.1386509   0.0600545), wk =   0.0533333
        k(   46) = (  -0.5000000   0.2773018  -0.2496918), wk =   0.0266667
        k(   47) = (  -0.5000000   0.2773018  -0.0948187), wk =   0.0533333
        k(   48) = (  -0.5000000   0.2773018   0.0600545), wk =   0.0533333

     Dense  grid:   121635 G-vectors     FFT dimensions: (  50,  80,  80)

     Smooth grid:    87073 G-vectors     FFT dimensions: (  45,  72,  72)

     Estimated max dynamical RAM per process >       6.34 MB

     Estimated total dynamical RAM >     824.51 MB

     Initial potential from superposition of free atoms

     starting charge      23.9988, renormalised to      24.0000
     Starting wfcs are   28 randomized atomic wfcs

     total cpu time spent up to now is        0.7 secs

     Self-consistent Calculation

     iteration #  1     ecut=    75.00 Ry     beta= 0.70
     Davidson diagonalization with overlap
     ethr =  1.00E-02,  avg # of iterations =  2.9

     total cpu time spent up to now is        1.0 secs

     total energy              =     -39.46248133 Ry
     estimated scf accuracy    <       1.10467848 Ry

     iteration #  2     ecut=    75.00 Ry     beta= 0.70
     Davidson diagonalization with overlap
     ethr =  4.60E-03,  avg # of iterations =  2.0

     total cpu time spent up to now is        1.2 secs

     total energy              =     -39.60202330 Ry
     estimated scf accuracy    <       0.07543950 Ry

     iteration #  3     ecut=    75.00 Ry     beta= 0.70
     Davidson diagonalization with overlap
     ethr =  3.14E-04,  avg # of iterations =  2.3

     total cpu time spent up to now is        1.4 secs

     total energy              =     -39.61355119 Ry
     estimated scf accuracy    <       0.00339258 Ry

     iteration #  4     ecut=    75.00 Ry     beta= 0.70
     Davidson diagonalization with overlap
     ethr =  1.41E-05,  avg # of iterations =  5.4

     total cpu time spent up to now is        1.6 secs

     total energy              =     -39.61398988 Ry
     estimated scf accuracy    <       0.00003900 Ry

     iteration #  5     ecut=    75.00 Ry     beta= 0.70
     Davidson diagonalization with overlap
     ethr =  1.63E-07,  avg # of iterations =  2.5

     total cpu time spent up to now is        1.8 secs

     total energy              =     -39.61400604 Ry
     estimated scf accuracy    <       0.00000340 Ry

     iteration #  6     ecut=    75.00 Ry     beta= 0.70
     Davidson diagonalization with overlap
     ethr =  1.42E-08,  avg # of iterations =  2.0

     total cpu time spent up to now is        2.0 secs

     total energy              =     -39.61400681 Ry
     estimated scf accuracy    <       0.00000007 Ry

     iteration #  7     ecut=    75.00 Ry     beta= 0.70
     Davidson diagonalization with overlap
     ethr =  2.90E-10,  avg # of iterations =  2.9

     total cpu time spent up to now is        2.2 secs

     End of self-consistent calculation

          k = 0.0000 0.0000 0.0000 ( 10845 PWs)   bands (ev):

   -12.6040 -12.1487  -7.1408  -6.9781  -6.3132  -6.1221  -5.3469  -4.9976
    -4.8618  -4.7207  -3.6603  -3.3015   2.0433   3.1353   4.6675   4.7877

          k = 0.0000 0.0000 0.1549 ( 10896 PWs)   bands (ev):

   -12.5558 -12.1851  -7.2283  -6.9812  -6.5223  -6.1754  -5.1239  -4.9145
    -4.8160  -4.6943  -3.5865  -3.2943   2.1269   3.0217   4.6526   4.7981

          k = 0.0000 0.0000 0.3097 ( 10899 PWs)   bands (ev):

   -12.4326 -12.2895  -7.2958  -7.1607  -6.5327  -6.3353  -4.9960  -4.9804
    -4.5641  -4.5572  -3.4224  -3.3078   2.3793   2.7336   4.5070   4.7120

          k = 0.0000 0.1387 0.0000 ( 10864 PWs)   bands (ev):

   -12.5628 -12.1945  -7.0918  -6.9654  -6.3827  -6.2500  -5.3047  -4.9783
    -4.7703  -4.7141  -3.6197  -3.3230   2.1148   2.9739   4.7617   4.7799

          k = 0.0000 0.1387 0.1549 ( 10889 PWs)   bands (ev):

   -12.5205 -12.2201  -7.2921  -6.9923  -6.5301  -6.1304  -5.1371  -4.8670
    -4.8149  -4.6537  -3.5660  -3.3207   2.1712   2.8784   4.7245   4.9054

          k = 0.0000 0.1387 0.3097 ( 10900 PWs)   bands (ev):

   -12.4149 -12.2986  -7.4218  -7.2950  -6.3770  -6.1973  -4.9840  -4.9188
    -4.6311  -4.5449  -3.4327  -3.3353   2.3605   2.6410   4.6720   4.8620

          k = 0.0000 0.2773 0.0000 ( 10878 PWs)   bands (ev):

   -12.4527 -12.3120  -6.9773  -6.9291  -6.5098  -6.4663  -5.1905  -5.0503
    -4.6463  -4.6452  -3.5163  -3.3982   2.3194   2.6339   4.7983   4.9661

          k = 0.0000 0.2773 0.1549 ( 10877 PWs)   bands (ev):

   -12.4276 -12.3126  -7.3000  -7.1674  -6.3633  -6.1829  -5.0891  -4.9737
    -4.6708  -4.6078  -3.4978  -3.3976   2.3181   2.5791   4.9251   5.0916

          k = 0.0000 0.2773 0.3097 ( 10892 PWs)   bands (ev):

   -12.3722 -12.3275  -7.5420  -7.4910  -6.1405  -6.0654  -4.9158  -4.8358
    -4.6936  -4.6014  -3.4344  -3.3941   2.3654   2.4693   5.1154   5.2465

          k = 0.1667 0.0000 0.0832 ( 10876 PWs)   bands (ev):

   -12.5362 -12.1428  -7.0879  -6.8812  -6.6187  -6.1705  -5.1497  -5.0306
    -4.8499  -4.8228  -3.7105  -3.4024   1.9903   2.8269   4.5629   4.5752

          k = 0.1667 0.0000 0.2381 ( 10892 PWs)   bands (ev):

   -12.4545 -12.2043  -7.1815  -7.0920  -6.6500  -6.2190  -5.0749  -4.9842
    -4.7362  -4.5840  -3.6505  -3.4299   2.1706   2.6555   4.4573   4.7467

          k = 0.1667 0.0000 0.3930 ( 10890 PWs)   bands (ev):

   -12.3293 -12.3218  -7.2893  -7.1467  -6.4684  -6.3582  -5.1676  -5.1020
    -4.5942  -4.4605  -3.4761  -3.4225   2.4138   2.5382   4.5767   4.7091

          k = 0.1667 0.0000-0.2265 ( 10877 PWs)   bands (ev):

   -12.4519 -12.2146  -7.2589  -6.9774  -6.4359  -6.3079  -5.3425  -5.1034
    -4.7156  -4.5496  -3.5192  -3.3357   2.1817   2.8859   4.7327   4.7571

          k = 0.1667 0.0000-0.0716 ( 10873 PWs)   bands (ev):

   -12.5359 -12.1479  -7.1071  -6.9049  -6.3678  -6.2114  -5.4813  -5.0551
    -4.8939  -4.6844  -3.6541  -3.3303   2.0249   2.9660   4.5706   4.6862

          k = 0.1667 0.1387 0.0832 ( 10885 PWs)   bands (ev):

   -12.4996 -12.1811  -7.1059  -6.8878  -6.6090  -6.2006  -5.2153  -5.0252
    -4.8120  -4.7367  -3.6923  -3.4248   2.0874   2.7794   4.6124   4.7639

          k = 0.1667 0.1387 0.2381 ( 10904 PWs)   bands (ev):

   -12.4286 -12.2255  -7.2843  -7.1806  -6.4969  -6.1701  -5.1289  -4.9409
    -4.7447  -4.5570  -3.6508  -3.4373   2.2191   2.6408   4.5594   4.9267

          k = 0.1667 0.1387 0.3930 ( 10881 PWs)   bands (ev):

   -12.3242 -12.3180  -7.3806  -7.2627  -6.4257  -6.1950  -5.1759  -5.0291
    -4.6136  -4.4803  -3.4909  -3.4072   2.3596   2.5165   4.5693   4.9422

          k = 0.1667 0.1387-0.2265 ( 10880 PWs)   bands (ev):

   -12.4270 -12.2344  -7.3179  -7.0354  -6.5120  -6.1801  -5.2927  -5.0388
    -4.7120  -4.5756  -3.4957  -3.3472   2.1801   2.7380   4.7217   4.8033

          k = 0.1667 0.1387-0.0716 ( 10861 PWs)   bands (ev):

   -12.4997 -12.1855  -7.0894  -6.8879  -6.4504  -6.2999  -5.4102  -5.0043
    -4.8391  -4.7054  -3.6191  -3.3529   2.0804   2.8477   4.5491   4.8994

          k = 0.1667 0.2773 0.0832 ( 10900 PWs)   bands (ev):

   -12.4027 -12.2809  -7.0870  -6.9887  -6.4880  -6.3168  -5.2131  -5.1225
    -4.6956  -4.6543  -3.6171  -3.5020   2.3328   2.6058   4.8916   5.0675

          k = 0.1667 0.2773 0.2381 ( 10893 PWs)   bands (ev):

   -12.3622 -12.2843  -7.3745  -7.3258  -6.2661  -6.1444  -5.1288  -5.0340
    -4.6470  -4.5628  -3.5949  -3.4945   2.3633   2.5417   4.8837   5.1979

          k = 0.1667 0.2773 0.3930 ( 10887 PWs)   bands (ev):

   -12.3150 -12.3126  -7.4792  -7.4370  -6.2520  -6.1239  -5.0889  -4.9844
    -4.6160  -4.5425  -3.4726  -3.4249   2.3391   2.4209   4.7844   5.1184

          k = 0.1667 0.2773-0.2265 ( 10886 PWs)   bands (ev):

   -12.3636 -12.2897  -7.3441  -7.2294  -6.3850  -6.2177  -5.1297  -4.9925
    -4.6933  -4.6288  -3.4402  -3.3833   2.2434   2.4507   4.7942   4.8780

          k = 0.1667 0.2773-0.0716 ( 10883 PWs)   bands (ev):

   -12.4039 -12.2837  -7.0168  -6.9032  -6.5465  -6.4521  -5.2447  -5.0653
    -4.7311  -4.6965  -3.5272  -3.4228   2.2620   2.5580   4.7250   4.9873

          k = 0.3333 0.0000 0.1665 ( 10872 PWs)   bands (ev):

   -12.3902 -12.1310  -7.1521  -6.9773  -6.5818  -6.2319  -5.2732  -5.0849
    -4.8240  -4.6022  -3.9200  -3.6861   2.0265   2.3650   4.4226   4.6606

          k = 0.3333 0.0000 0.3213 ( 10897 PWs)   bands (ev):

   -12.3226 -12.1867  -7.3166  -7.0168  -6.4792  -6.2429  -5.3442  -5.1733
    -4.6972  -4.4661  -3.8509  -3.6746   2.2435   2.2745   4.6337   4.7929

          k = 0.3333 0.0000 0.4762 ( 10921 PWs)   bands (ev):

   -12.2811 -12.2407  -7.2479  -6.9109  -6.4148  -6.3309  -5.5323  -5.3072
    -4.7076  -4.5369  -3.5988  -3.5781   2.1200   2.5242   4.4288   4.6192

          k = 0.3333 0.0000-0.1433 ( 10880 PWs)   bands (ev):

   -12.3703 -12.1711  -7.0266  -6.7620  -6.4779  -6.3932  -5.6477  -5.3372
    -4.7981  -4.6720  -3.6178  -3.4438   2.0300   2.5878   4.2380   4.3297

          k = 0.3333 0.0000 0.0116 ( 10867 PWs)   bands (ev):

   -12.4117 -12.1294  -6.9041  -6.8175  -6.6637  -6.3231  -5.4046  -5.3031
    -4.7922  -4.7711  -3.7762  -3.5242   1.9767   2.4404   4.1427   4.4595

          k = 0.3333 0.1387 0.1665 ( 10887 PWs)   bands (ev):

   -12.3645 -12.1544  -7.1460  -6.9958  -6.5770  -6.2574  -5.3182  -5.1546
    -4.7562  -4.5788  -3.8862  -3.6526   2.1465   2.4147   4.3965   4.7913

          k = 0.3333 0.1387 0.3213 ( 10900 PWs)   bands (ev):

   -12.3070 -12.1968  -7.3018  -7.0693  -6.5130  -6.2392  -5.3868  -5.1481
    -4.6691  -4.4690  -3.7980  -3.6357   2.2372   2.3806   4.4431   4.8574

          k = 0.3333 0.1387 0.4762 ( 10887 PWs)   bands (ev):

   -12.2739 -12.2411  -7.2327  -6.9695  -6.5602  -6.2948  -5.4296  -5.2425
    -4.7076  -4.5621  -3.5748  -3.5607   2.1274   2.5073   4.3700   4.6391

          k = 0.3333 0.1387-0.1433 ( 10882 PWs)   bands (ev):

   -12.3492 -12.1876  -7.0115  -6.7979  -6.5696  -6.4560  -5.5102  -5.2337
    -4.7996  -4.7273  -3.6004  -3.4616   2.0706   2.5579   4.2476   4.5045

          k = 0.3333 0.1387 0.0116 ( 10885 PWs)   bands (ev):

   -12.3840 -12.1552  -6.8957  -6.8175  -6.6917  -6.3839  -5.4261  -5.2015
    -4.8267  -4.7429  -3.7579  -3.5415   2.0789   2.4722   4.2731   4.5916

          k = 0.3333 0.2773 0.1665 ( 10902 PWs)   bands (ev):

   -12.2978 -12.2173  -7.1192  -7.0600  -6.4926  -6.3554  -5.3496  -5.2822
    -4.6495  -4.5826  -3.7605  -3.6519   2.3786   2.4776   4.5096   4.7609

          k = 0.3333 0.2773 0.3213 ( 10898 PWs)   bands (ev):

   -12.2685 -12.2263  -7.2602  -7.1778  -6.4748  -6.3369  -5.3460  -5.2210
    -4.5784  -4.4997  -3.6775  -3.6051   2.3437   2.4332   4.3976   4.6165

          k = 0.3333 0.2773 0.4762 ( 10897 PWs)   bands (ev):

   -12.2582 -12.2456  -7.1938  -7.1010  -6.5731  -6.4261  -5.2369  -5.1606
    -4.6939  -4.6304  -3.5366  -3.5326   2.2208   2.3926   4.4097   4.5689

          k = 0.3333 0.2773-0.1433 ( 10918 PWs)   bands (ev):

   -12.2956 -12.2337  -6.9748  -6.8854  -6.6429  -6.5621  -5.2620  -5.1179
    -4.8362  -4.8090  -3.5578  -3.5059   2.2169   2.4236   4.4655   4.6958

          k = 0.3333 0.2773 0.0116 ( 10902 PWs)   bands (ev):

   -12.3119 -12.2243  -6.8802  -6.8518  -6.6538  -6.5286  -5.3330  -5.2013
    -4.8139  -4.7477  -3.6859  -3.5957   2.3037   2.4669   4.5816   4.7712

          k =-0.5000 0.0000-0.2497 ( 10874 PWs)   bands (ev):

   -12.3111 -12.1250  -7.3702  -6.9269  -6.4295  -6.2331  -5.3783  -5.1207
    -4.7845  -4.4821  -4.0693  -3.8636   2.1007   2.1900   4.5194   5.0197

          k =-0.5000 0.0000-0.0948 ( 10910 PWs)   bands (ev):

   -12.2992 -12.1490  -7.2495  -6.8661  -6.4497  -6.2971  -5.4615  -5.2877
    -4.7625  -4.5749  -3.9106  -3.7268   2.1393   2.1580   4.2090   4.7235

          k =-0.5000 0.0000 0.0601 ( 10883 PWs)   bands (ev):

   -12.2625 -12.2054  -6.9506  -6.7623  -6.5078  -6.4781  -5.5637  -5.5077
    -4.7622  -4.7189  -3.6458  -3.5672   2.1478   2.2081   4.0192   4.2310

          k =-0.5000 0.1387-0.2497 ( 10894 PWs)   bands (ev):

   -12.2918 -12.1410  -7.3061  -6.9254  -6.4759  -6.3353  -5.4347  -5.2022
    -4.7003  -4.4791  -3.9672  -3.7996   2.2258   2.2563   4.3325   4.8320

          k =-0.5000 0.1387-0.0948 ( 10897 PWs)   bands (ev):

   -12.2828 -12.1611  -7.1920  -6.8755  -6.5207  -6.3972  -5.4495  -5.2547
    -4.7522  -4.5758  -3.8535  -3.6984   2.1688   2.2837   4.1786   4.7425

          k =-0.5000 0.1387 0.0601 ( 10903 PWs)   bands (ev):

   -12.2540 -12.2076  -6.9195  -6.7887  -6.6070  -6.5539  -5.4584  -5.3737
    -4.8109  -4.7421  -3.6441  -3.5741   2.1812   2.2747   4.0915   4.3639

          k =-0.5000 0.2773-0.2497 ( 10904 PWs)   bands (ev):

   -12.2427 -12.1849  -7.1390  -6.9731  -6.5443  -6.5084  -5.4632  -5.3631
    -4.5718  -4.4980  -3.7869  -3.7224   2.3935   2.4162   4.2166   4.4734

          k =-0.5000 0.2773-0.0948 ( 10895 PWs)   bands (ev):

   -12.2417 -12.1951  -7.0447  -6.9139  -6.6253  -6.5809  -5.3819  -5.2849
    -4.6902  -4.6134  -3.7335  -3.6720   2.3185   2.3971   4.2485   4.5275

          k =-0.5000 0.2773 0.0601 ( 10910 PWs)   bands (ev):

   -12.2347 -12.2169  -6.8566  -6.8349  -6.7244  -6.6747  -5.2578  -5.1985
    -4.8841  -4.8309  -3.6262  -3.5970   2.2875   2.3398   4.3615   4.5417

     the Fermi energy is     1.1240 ev

!    total energy              =     -39.61400683 Ry
     estimated scf accuracy    <          1.2E-09 Ry
     smearing contrib. (-TS)   =      -0.00000000 Ry
     internal energy E=F+TS    =     -39.61400683 Ry

     The total energy is F=E-TS. E is the sum of the following terms:
     one-electron contribution =     -16.18982426 Ry
     hartree contribution      =      13.49570312 Ry
     xc contribution           =     -20.24074085 Ry
     ewald contribution        =     -16.67914484 Ry

     convergence has been achieved in   7 iterations

     Forces acting on atoms (cartesian axes, Ry/au):

     atom    1 type  1   force =     0.00005758   -0.00001848    0.00019184
     atom    2 type  1   force =    -0.00005758    0.00001848   -0.00019184
     atom    3 type  1   force =    -0.00005758   -0.00001848   -0.00019184
     atom    4 type  1   force =     0.00005758    0.00001848    0.00019184
     atom    5 type  2   force =     0.00037014    0.00016217    0.00009323
     atom    6 type  2   force =    -0.00037014   -0.00016217   -0.00009323
     atom    7 type  2   force =    -0.00037014    0.00016217   -0.00009323
     atom    8 type  2   force =     0.00037014   -0.00016217    0.00009323
     atom    9 type  2   force =    -0.00009634    0.00012499   -0.00002761
     atom   10 type  2   force =     0.00009634   -0.00012499    0.00002761
     atom   11 type  2   force =     0.00009634    0.00012499    0.00002761
     atom   12 type  2   force =    -0.00009634   -0.00012499   -0.00002761
     atom   13 type  2   force =    -0.00027415   -0.00000869    0.00013571
     atom   14 type  2   force =     0.00027415    0.00000869   -0.00013571
     atom   15 type  2   force =     0.00027415   -0.00000869   -0.00013571
     atom   16 type  2   force =    -0.00027415    0.00000869    0.00013571

     Total force =     0.001152     Total SCF correction =     0.000005


     Computing stress (Cartesian axis) and pressure

          total   stress  (Ry/bohr**3)                   (kbar)     P=        9.29
   0.00006122   0.00000000  -0.00000056            9.01        0.00       -0.08
   0.00000000   0.00006666   0.00000000            0.00        9.81        0.00
  -0.00000056   0.00000000   0.00006158           -0.08        0.00        9.06


     BFGS Geometry Optimization
     Energy error            =      0.0E+00 Ry
     Gradient error          =      3.7E-04 Ry/Bohr
     Cell gradient error     =      9.8E+00 kbar

     number of scf cycles    =   1
     number of bfgs steps    =   0

     enthalpy           new  =     -39.6140068300 Ry

     new trust radius        =       0.0105021670 bohr
     new conv_thr            =       0.0000000100 Ry

     new unit-cell volume =    997.62467 a.u.^3 (   147.83272 Ang^3 )
     density =      0.62165 g/cm^3

CELL_PARAMETERS (alat=  8.10805891)
   1.001530424   0.000000000  -0.000013941
   0.000000000   1.444875517   0.000000000
  -0.645898788   0.000000000   1.293376401

ATOMIC_POSITIONS (crystal)
B             0.1421664499        0.5436565587        0.6443187944
B             0.8578335501        0.4563434413        0.3556812056
B             0.8578335501        0.0436565587        0.8556812056
B             0.1421664499        0.9563434413        0.1443187944
H             0.0879451132        0.0049949194        0.3109679161
H             0.9120548868        0.9950050806        0.6890320839
H             0.9120548868        0.5049949194        0.1890320839
H             0.0879451132        0.4950050806        0.8109679161
H             0.1417433535        0.1321296013        0.0241731382
H             0.8582566465        0.8678703987        0.9758268618
H             0.8582566465        0.6321296013        0.4758268618
H             0.1417433535        0.3678703987        0.5241731382
H             0.3874089395        0.6515312256        0.6714780923
H             0.6125910605        0.3484687744        0.3285219077
H             0.6125910605        0.1515312256        0.8285219077
H             0.3874089395        0.8484687744        0.1714780923



     Writing config-only to output data dir ./bh3.save/
     NEW-OLD atomic charge density approx. for the potential
     extrapolated charge   24.11331, renormalised to   24.00000

     total cpu time spent up to now is        2.5 secs

     Self-consistent Calculation

     iteration #  1     ecut=    75.00 Ry     beta= 0.70
     Davidson diagonalization with overlap
     ethr =  1.00E-06,  avg # of iterations =  2.9

     total cpu time spent up to now is        2.8 secs

     total energy              =     -39.61387396 Ry
     estimated scf accuracy    <       0.00024764 Ry

     iteration #  2     ecut=    75.00 Ry     beta= 0.70
     Davidson diagonalization with overlap
     ethr =  1.03E-06,  avg # of iterations =  3.0

     total cpu time spent up to now is        3.0 secs

     total energy              =     -39.61427348 Ry
     estimated scf accuracy    <       0.00050110 Ry

     iteration #  3     ecut=    75.00 Ry     beta= 0.70
     Davidson diagonalization with overlap
     ethr =  1.03E-06,  avg # of iterations =  1.9

     total cpu time spent up to now is        3.1 secs

     total energy              =     -39.61423795 Ry
     estimated scf accuracy    <       0.00011013 Ry

     iteration #  4     ecut=    75.00 Ry     beta= 0.70
     Davidson diagonalization with overlap
     ethr =  4.59E-07,  avg # of iterations =  2.0

     total cpu time spent up to now is        3.3 secs

     total energy              =     -39.61426340 Ry
     estimated scf accuracy    <       0.00000114 Ry

     iteration #  5     ecut=    75.00 Ry     beta= 0.70
     Davidson diagonalization with overlap
     ethr =  4.73E-09,  avg # of iterations =  2.6

     total cpu time spent up to now is        3.7 secs

     total energy              =     -39.61426242 Ry
     estimated scf accuracy    <       0.00000213 Ry

     iteration #  6     ecut=    75.00 Ry     beta= 0.70
     Davidson diagonalization with overlap
     ethr =  4.73E-09,  avg # of iterations =  2.0

     total cpu time spent up to now is        3.9 secs

     total energy              =     -39.61426287 Ry
     estimated scf accuracy    <       0.00000085 Ry

     iteration #  7     ecut=    75.00 Ry     beta= 0.70
     Davidson diagonalization with overlap
     ethr =  3.55E-09,  avg # of iterations =  2.0

     total cpu time spent up to now is        4.0 secs

     total energy              =     -39.61426297 Ry
     estimated scf accuracy    <       0.00000001 Ry

     iteration #  8     ecut=    75.00 Ry     beta= 0.70
     Davidson diagonalization with overlap
     ethr =  5.61E-11,  avg # of iterations =  2.0

     total cpu time spent up to now is        4.2 secs

     End of self-consistent calculation

          k = 0.0000 0.0000 0.0000 ( 10845 PWs)   bands (ev):

   -12.5983 -12.1463  -7.1523  -6.9843  -6.3256  -6.1282  -5.3542  -5.0085
    -4.8718  -4.7312  -3.6761  -3.3193   2.0194   3.1045   4.6419   4.7480

          k = 0.0000 0.0000 0.1546 ( 10896 PWs)   bands (ev):

   -12.5504 -12.1824  -7.2389  -6.9901  -6.5294  -6.1812  -5.1334  -4.9240
    -4.8282  -4.7054  -3.6028  -3.3123   2.1026   2.9916   4.6135   4.7705

          k = 0.0000 0.0000 0.3093 ( 10899 PWs)   bands (ev):

   -12.4280 -12.2860  -7.3059  -7.1716  -6.5362  -6.3401  -5.0052  -4.9893
    -4.5777  -4.5703  -3.4398  -3.3259   2.3535   2.7055   4.4698   4.6771

          k = 0.0000 0.1384 0.0000 ( 10864 PWs)   bands (ev):

   -12.5574 -12.1917  -7.1036  -6.9721  -6.3940  -6.2550  -5.3122  -4.9889
    -4.7813  -4.7252  -3.6357  -3.3408   2.0905   2.9442   4.7238   4.7534

          k = 0.0000 0.1384 0.1546 ( 10889 PWs)   bands (ev):

   -12.5154 -12.2172  -7.3005  -7.0033  -6.5350  -6.1383  -5.1462  -4.8777
    -4.8258  -4.6658  -3.5824  -3.3385   2.1466   2.8492   4.6867   4.8767

          k = 0.0000 0.1384 0.3093 ( 10900 PWs)   bands (ev):

   -12.4105 -12.2951  -7.4295  -7.3038  -6.3830  -6.2044  -4.9934  -4.9284
    -4.6440  -4.5583  -3.4500  -3.3532   2.3347   2.6133   4.6351   4.8272

          k = 0.0000 0.2768 0.0000 ( 10878 PWs)   bands (ev):

   -12.4481 -12.3084  -6.9899  -6.9387  -6.5171  -6.4701  -5.1986  -5.0596
    -4.6587  -4.6577  -3.5330  -3.4156   2.2939   2.6065   4.7636   4.9339

          k = 0.0000 0.2768 0.1546 ( 10877 PWs)   bands (ev):

   -12.4231 -12.3090  -7.3075  -7.1761  -6.3705  -6.1916  -5.0980  -4.9834
    -4.6830  -4.6206  -3.5146  -3.4150   2.2925   2.5518   4.8899   5.0595

          k = 0.0000 0.2768 0.3093 ( 10892 PWs)   bands (ev):

   -12.3682 -12.3238  -7.5480  -7.4973  -6.1490  -6.0744  -4.9258  -4.8464
    -4.7058  -4.6143  -3.4517  -3.4116   2.3393   2.4425   5.0796   5.2113

          k = 0.1664 0.0000 0.0831 ( 10876 PWs)   bands (ev):

   -12.5310 -12.1405  -7.0997  -6.8902  -6.6257  -6.1761  -5.1592  -5.0397
    -4.8617  -4.8330  -3.7261  -3.4196   1.9670   2.7986   4.5263   4.5474

          k = 0.1664 0.0000 0.2377 ( 10892 PWs)   bands (ev):

   -12.4498 -12.2015  -7.1924  -7.1033  -6.6529  -6.2246  -5.0835  -4.9930
    -4.7487  -4.5977  -3.6664  -3.4470   2.1463   2.6281   4.4207   4.7153

          k = 0.1664 0.0000 0.3924 ( 10890 PWs)   bands (ev):

   -12.3255 -12.3181  -7.2992  -7.1575  -6.4727  -6.3630  -5.1759  -5.1098
    -4.6078  -4.4746  -3.4931  -3.4399   2.3876   2.5113   4.5418   4.6745

          k = 0.1664 0.0000-0.2262 ( 10877 PWs)   bands (ev):

   -12.4473 -12.2117  -7.2691  -6.9879  -6.4419  -6.3129  -5.3500  -5.1115
    -4.7286  -4.5626  -3.5358  -3.3534   2.1566   2.8565   4.6968   4.7268

          k = 0.1664 0.0000-0.0715 ( 10873 PWs)   bands (ev):

   -12.5307 -12.1455  -7.1187  -6.9121  -6.3791  -6.2168  -5.4874  -5.0642
    -4.9053  -4.6959  -3.6699  -3.3480   2.0011   2.9364   4.5434   4.6504

          k = 0.1664 0.1384 0.0831 ( 10885 PWs)   bands (ev):

   -12.4947 -12.1785  -7.1162  -6.8992  -6.6142  -6.2072  -5.2237  -5.0344
    -4.8232  -4.7487  -3.7079  -3.4420   2.0635   2.7512   4.5799   4.7316

          k = 0.1664 0.1384 0.2377 ( 10904 PWs)   bands (ev):

   -12.4241 -12.2226  -7.2928  -7.1903  -6.5024  -6.1770  -5.1368  -4.9505
    -4.7569  -4.5706  -3.6667  -3.4545   2.1943   2.6133   4.5239   4.8941

          k = 0.1664 0.1384 0.3924 ( 10881 PWs)   bands (ev):

   -12.3204 -12.3144  -7.3887  -7.2716  -6.4307  -6.2026  -5.1838  -5.0381
    -4.6269  -4.4943  -3.5078  -3.4247   2.3336   2.4896   4.5352   4.9076

          k = 0.1664 0.1384-0.2262 ( 10880 PWs)   bands (ev):

   -12.4226 -12.2314  -7.3264  -7.0460  -6.5159  -6.1883  -5.3003  -5.0478
    -4.7249  -4.5885  -3.5125  -3.3649   2.1552   2.7096   4.6911   4.7688

          k = 0.1664 0.1384-0.0715 ( 10861 PWs)   bands (ev):

   -12.4948 -12.1829  -7.1002  -6.8969  -6.4589  -6.3059  -5.4168  -5.0141
    -4.8506  -4.7171  -3.6351  -3.3705   2.0562   2.8189   4.5201   4.8638

          k = 0.1664 0.2768 0.0831 ( 10900 PWs)   bands (ev):

   -12.3984 -12.2775  -7.0964  -6.9991  -6.4941  -6.3241  -5.2210  -5.1307
    -4.7079  -4.6671  -3.6331  -3.5188   2.3072   2.5785   4.8584   5.0339

          k = 0.1664 0.2768 0.2377 ( 10893 PWs)   bands (ev):

   -12.3583 -12.2810  -7.3816  -7.3335  -6.2738  -6.1527  -5.1370  -5.0433
    -4.6597  -4.5762  -3.6111  -3.5115   2.3373   2.5145   4.8494   5.1649

          k = 0.1664 0.2768 0.3924 ( 10887 PWs)   bands (ev):

   -12.3114 -12.3090  -7.4858  -7.4438  -6.2591  -6.1323  -5.0978  -4.9942
    -4.6290  -4.5560  -3.4896  -3.4422   2.3131   2.3944   4.7508   5.0858

          k = 0.1664 0.2768-0.2262 ( 10886 PWs)   bands (ev):

   -12.3596 -12.2863  -7.3513  -7.2374  -6.3915  -6.2260  -5.1386  -5.0024
    -4.7058  -4.6416  -3.4574  -3.4009   2.2181   2.4242   4.7640   4.8444

          k = 0.1664 0.2768-0.0715 ( 10883 PWs)   bands (ev):

   -12.3996 -12.2803  -7.0270  -6.9145  -6.5514  -6.4584  -5.2524  -5.0744
    -4.7432  -4.7089  -3.5438  -3.4400   2.2368   2.5311   4.6947   4.9523

          k = 0.3328 0.0000 0.1662 ( 10872 PWs)   bands (ev):

   -12.3861 -12.1288  -7.1604  -6.9897  -6.5874  -6.2372  -5.2808  -5.0942
    -4.8355  -4.6159  -3.9339  -3.7015   2.0034   2.3397   4.3940   4.6259

          k = 0.3328 0.0000 0.3208 ( 10897 PWs)   bands (ev):

   -12.3189 -12.1841  -7.3243  -7.0284  -6.4850  -6.2486  -5.3514  -5.1812
    -4.7099  -4.4805  -3.8651  -3.6902   2.2190   2.2493   4.6027   4.7585

          k = 0.3328 0.0000 0.4755 ( 10921 PWs)   bands (ev):

   -12.2778 -12.2376  -7.2568  -6.9226  -6.4204  -6.3369  -5.5383  -5.3142
    -4.7206  -4.5505  -3.6147  -3.5943   2.0955   2.4974   4.3996   4.5894

          k = 0.3328 0.0000-0.1431 ( 10880 PWs)   bands (ev):

   -12.3663 -12.1686  -7.0382  -6.7731  -6.4852  -6.3978  -5.6526  -5.3445
    -4.8106  -4.6845  -3.6337  -3.4608   2.0061   2.5608   4.2115   4.3003

          k = 0.3328 0.0000 0.0116 ( 10867 PWs)   bands (ev):

   -12.4073 -12.1272  -6.9174  -6.8288  -6.6682  -6.3273  -5.4121  -5.3106
    -4.8046  -4.7828  -3.7911  -3.5407   1.9536   2.4148   4.1166   4.4276

          k = 0.3328 0.1384 0.1662 ( 10887 PWs)   bands (ev):

   -12.3605 -12.1520  -7.1544  -7.0078  -6.5821  -6.2634  -5.3252  -5.1632
    -4.7684  -4.5925  -3.9003  -3.6683   2.1223   2.3889   4.3664   4.7584

          k = 0.3328 0.1384 0.3208 ( 10900 PWs)   bands (ev):

   -12.3034 -12.1941  -7.3097  -7.0802  -6.5177  -6.2460  -5.3932  -5.1568
    -4.6820  -4.4834  -3.8127  -3.6516   2.2123   2.3548   4.4120   4.8250

          k = 0.3328 0.1384 0.4755 ( 10887 PWs)   bands (ev):

   -12.2706 -12.2380  -7.2416  -6.9808  -6.5633  -6.3022  -5.4364  -5.2505
    -4.7205  -4.5756  -3.5910  -3.5770   2.1030   2.4805   4.3417   4.6078

          k = 0.3328 0.1384-0.1431 ( 10882 PWs)   bands (ev):

   -12.3453 -12.1850  -7.0229  -6.8092  -6.5740  -6.4617  -5.5164  -5.2420
    -4.8120  -4.7394  -3.6165  -3.4785   2.0466   2.5310   4.2205   4.4743

          k = 0.3328 0.1384 0.0116 ( 10885 PWs)   bands (ev):

   -12.3799 -12.1529  -6.9087  -6.8300  -6.6945  -6.3886  -5.4327  -5.2101
    -4.8383  -4.7554  -3.7729  -3.5579   2.0550   2.4463   4.2460   4.5591

          k = 0.3328 0.2768 0.1662 ( 10902 PWs)   bands (ev):

   -12.2943 -12.2145  -7.1282  -7.0703  -6.4984  -6.3618  -5.3561  -5.2895
    -4.6625  -4.5962  -3.7757  -3.6679   2.3526   2.4511   4.4789   4.7292

          k = 0.3328 0.2768 0.3208 ( 10898 PWs)   bands (ev):

   -12.2653 -12.2234  -7.2686  -7.1872  -6.4796  -6.3432  -5.3529  -5.2293
    -4.5920  -4.5138  -3.6932  -3.6213   2.3178   2.4067   4.3673   4.5855

          k = 0.3328 0.2768 0.4755 ( 10897 PWs)   bands (ev):

   -12.2550 -12.2425  -7.2026  -7.1105  -6.5769  -6.4321  -5.2455  -5.1697
    -4.7067  -4.6435  -3.5530  -3.5492   2.1958   2.3664   4.3807   4.5378

          k = 0.3328 0.2768-0.1431 ( 10918 PWs)   bands (ev):

   -12.2922 -12.2307  -6.9852  -6.8965  -6.6462  -6.5678  -5.2703  -5.1273
    -4.8478  -4.8209  -3.5741  -3.5225   2.1920   2.3975   4.4366   4.6641

          k = 0.3328 0.2768 0.0116 ( 10902 PWs)   bands (ev):

   -12.3084 -12.2215  -6.8921  -6.8635  -6.6578  -6.5334  -5.3401  -5.2096
    -4.8256  -4.7600  -3.7014  -3.6118   2.2783   2.4406   4.5521   4.7384

          k =-0.4992 0.0000-0.2493 ( 10874 PWs)   bands (ev):

   -12.3075 -12.1229  -7.3764  -6.9392  -6.4366  -6.2389  -5.3854  -5.1297
    -4.7964  -4.4965  -4.0819  -3.8777   2.0774   2.1656   4.4894   4.9854

          k =-0.4992 0.0000-0.0947 ( 10910 PWs)   bands (ev):

   -12.2958 -12.1467  -7.2565  -6.8789  -6.4568  -6.3025  -5.4681  -5.2955
    -4.7748  -4.5887  -3.9242  -3.7420   2.1152   2.1341   4.1818   4.6918

          k =-0.4992 0.0000 0.0600 ( 10883 PWs)   bands (ev):

   -12.2594 -12.2026  -6.9605  -6.7768  -6.5141  -6.4814  -5.5695  -5.5139
    -4.7746  -4.7316  -3.6614  -3.5835   2.1237   2.1835   3.9931   4.2033

          k =-0.4992 0.1384-0.2493 ( 10894 PWs)   bands (ev):

   -12.2884 -12.1388  -7.3130  -6.9381  -6.4824  -6.3400  -5.4410  -5.2105
    -4.7130  -4.4935  -3.9807  -3.8144   2.2012   2.2314   4.3033   4.7985

          k =-0.4992 0.1384-0.0947 ( 10897 PWs)   bands (ev):

   -12.2795 -12.1587  -7.1997  -6.8883  -6.5270  -6.4016  -5.4558  -5.2630
    -4.7646  -4.5895  -3.8677  -3.7138   2.1445   2.2586   4.1510   4.7102

          k =-0.4992 0.1384 0.0600 ( 10903 PWs)   bands (ev):

   -12.2510 -12.2049  -6.9301  -6.8024  -6.6118  -6.5569  -5.4650  -5.3815
    -4.8229  -4.7545  -3.6597  -3.5903   2.1568   2.2496   4.0649   4.3352

          k =-0.4992 0.2768-0.2493 ( 10904 PWs)   bands (ev):

   -12.2397 -12.1824  -7.1483  -6.9856  -6.5493  -6.5118  -5.4690  -5.3699
    -4.5856  -4.5123  -3.8019  -3.7380   2.3674   2.3898   4.1878   4.4422

          k =-0.4992 0.2768-0.0947 ( 10895 PWs)   bands (ev):

   -12.2387 -12.1924  -7.0549  -6.9269  -6.6292  -6.5836  -5.3887  -5.2928
    -4.7031  -4.6268  -3.7488  -3.6877   2.2930   2.3709   4.2198   4.4964

          k =-0.4992 0.2768 0.0600 ( 10910 PWs)   bands (ev):

   -12.2318 -12.2141  -6.8697  -6.8471  -6.7262  -6.6777  -5.2662  -5.2076
    -4.8954  -4.8426  -3.6419  -3.6130   2.2623   2.3141   4.3327   4.5110

     the Fermi energy is     1.0990 ev

!    total energy              =     -39.61426297 Ry
     estimated scf accuracy    <          3.2E-09 Ry
     smearing contrib. (-TS)   =      -0.00000000 Ry
     internal energy E=F+TS    =     -39.61426297 Ry

     The total energy is F=E-TS. E is the sum of the following terms:
     one-electron contribution =     -16.24013846 Ry
     hartree contribution      =      13.50383662 Ry
     xc contribution           =     -20.22548116 Ry
     ewald contribution        =     -16.65247997 Ry

     convergence has been achieved in   8 iterations

     Forces acting on atoms (cartesian axes, Ry/au):

     atom    1 type  1   force =    -0.00004206   -0.00017536   -0.00023405
     atom    2 type  1   force =     0.00004206    0.00017536    0.00023405
     atom    3 type  1   force =     0.00004206   -0.00017536    0.00023405
     atom    4 type  1   force =    -0.00004206    0.00017536   -0.00023405
     atom    5 type  2   force =     0.00122034   -0.00019703   -0.00116696
     atom    6 type  2   force =    -0.00122034    0.00019703    0.00116696
     atom    7 type  2   force =    -0.00122034   -0.00019703    0.00116696
     atom    8 type  2   force =     0.00122034    0.00019703   -0.00116696
     atom    9 type  2   force =    -0.00076857   -0.00096067   -0.00017393
     atom   10 type  2   force =     0.00076857    0.00096067    0.00017393
     atom   11 type  2   force =     0.00076857   -0.00096067    0.00017393
     atom   12 type  2   force =    -0.00076857    0.00096067   -0.00017393
     atom   13 type  2   force =    -0.00151626   -0.00089269   -0.00013360
     atom   14 type  2   force =     0.00151626    0.00089269    0.00013360
     atom   15 type  2   force =     0.00151626   -0.00089269    0.00013360
     atom   16 type  2   force =    -0.00151626    0.00089269   -0.00013360

     Total force =     0.005526     Total SCF correction =     0.000036


     Computing stress (Cartesian axis) and pressure

          total   stress  (Ry/bohr**3)                   (kbar)     P=        6.56
   0.00004268   0.00000000   0.00000036            6.28        0.00        0.05
   0.00000000   0.00005183   0.00000000            0.00        7.62        0.00
   0.00000036   0.00000000   0.00003921            0.05        0.00        5.77

     Energy error            =      2.6E-04 Ry
     Gradient error          =      1.5E-03 Ry/Bohr
     Cell gradient error     =      7.6E+00 kbar

     number of scf cycles    =   2
     number of bfgs steps    =   1

     enthalpy           old  =     -39.6140068300 Ry
     enthalpy           new  =     -39.6142629682 Ry

     CASE: enthalpy          _new < enthalpy          _old

     new trust radius        =       0.0115604872 bohr
     new conv_thr            =       0.0000000002 Ry

     new unit-cell volume =   1002.48836 a.u.^3 (   148.55345 Ang^3 )
     density =      0.61864 g/cm^3

CELL_PARAMETERS (alat=  8.10805891)
   1.003092855   0.000000000  -0.000009786
   0.000000000   1.447519709   0.000000000
  -0.646901023   0.000000000   1.295284439

ATOMIC_POSITIONS (crystal)
B             0.1421534272        0.5436412570        0.6443028628
B             0.8578465728        0.4563587430        0.3556971372
B             0.8578465728        0.0436412570        0.8556971372
B             0.1421534272        0.9563587430        0.1443028628
H             0.0880396975        0.0049829299        0.3108610531
H             0.9119603025        0.9950170701        0.6891389469
H             0.9119603025        0.5049829299        0.1891389469
H             0.0880396975        0.4950170701        0.8108610531
H             0.1416348744        0.1320522070        0.0241558936
H             0.8583651256        0.8679477930        0.9758441064
H             0.8583651256        0.6320522070        0.4758441064
H             0.1416348744        0.3679477930        0.5241558936
H             0.3872080907        0.6514557570        0.6714698329
H             0.6127919093        0.3485442430        0.3285301671
H             0.6127919093        0.1514557570        0.8285301671
H             0.3872080907        0.8485442430        0.1714698329



     Writing config-only to output data dir ./bh3.save/
     NEW-OLD atomic charge density approx. for the potential
     extrapolated charge   24.11643, renormalised to   24.00000

     total cpu time spent up to now is        4.6 secs

     Self-consistent Calculation

     iteration #  1     ecut=    75.00 Ry     beta= 0.70
     Davidson diagonalization with overlap
     ethr =  1.00E-06,  avg # of iterations =  2.0

     total cpu time spent up to now is        4.8 secs

     total energy              =     -39.61412508 Ry
     estimated scf accuracy    <       0.00020172 Ry

     iteration #  2     ecut=    75.00 Ry     beta= 0.70
     Davidson diagonalization with overlap
     ethr =  8.40E-07,  avg # of iterations =  3.0

     total cpu time spent up to now is        5.0 secs

     total energy              =     -39.61450953 Ry
     estimated scf accuracy    <       0.00049274 Ry

     iteration #  3     ecut=    75.00 Ry     beta= 0.70
     Davidson diagonalization with overlap
     ethr =  8.40E-07,  avg # of iterations =  1.9

     total cpu time spent up to now is        5.2 secs

     total energy              =     -39.61445572 Ry
     estimated scf accuracy    <       0.00012352 Ry

     iteration #  4     ecut=    75.00 Ry     beta= 0.70
     Davidson diagonalization with overlap
     ethr =  5.15E-07,  avg # of iterations =  2.0

     total cpu time spent up to now is        5.3 secs

     total energy              =     -39.61449283 Ry
     estimated scf accuracy    <       0.00000579 Ry

     iteration #  5     ecut=    75.00 Ry     beta= 0.70
     Davidson diagonalization with overlap
     ethr =  2.41E-08,  avg # of iterations =  1.0

     total cpu time spent up to now is        5.6 secs

     total energy              =     -39.61448951 Ry
     estimated scf accuracy    <       0.00000604 Ry

     iteration #  6     ecut=    75.00 Ry     beta= 0.70
     Davidson diagonalization with overlap
     ethr =  2.41E-08,  avg # of iterations =  2.0

     total cpu time spent up to now is        5.8 secs

     total energy              =     -39.61449061 Ry
     estimated scf accuracy    <       0.00000005 Ry

     iteration #  7     ecut=    75.00 Ry     beta= 0.70
     Davidson diagonalization with overlap
     ethr =  2.27E-10,  avg # of iterations =  2.0

     total cpu time spent up to now is        6.0 secs

     total energy              =     -39.61449061 Ry
     estimated scf accuracy    <          5.3E-09 Ry

     iteration #  8     ecut=    75.00 Ry     beta= 0.70
     Davidson diagonalization with overlap
     ethr =  2.22E-11,  avg # of iterations =  2.0

     total cpu time spent up to now is        6.2 secs

     total energy              =     -39.61449061 Ry
     estimated scf accuracy    <          7.5E-10 Ry

     iteration #  9     ecut=    75.00 Ry     beta= 0.70
     Davidson diagonalization with overlap
     ethr =  3.12E-12,  avg # of iterations =  2.0

     total cpu time spent up to now is        6.3 secs

     End of self-consistent calculation

          k = 0.0000 0.0000 0.0000 ( 10845 PWs)   bands (ev):

   -12.5980 -12.1504  -7.1672  -6.9939  -6.3422  -6.1378  -5.3654  -5.0229
    -4.8863  -4.7464  -3.6942  -3.3399   1.9957   3.0732   4.6196   4.7080

          k = 0.0000 0.0000 0.1544 ( 10896 PWs)   bands (ev):

   -12.5505 -12.1861  -7.2529  -7.0029  -6.5398  -6.1906  -5.1470  -4.9377
    -4.8443  -4.7211  -3.6216  -3.3332   2.0783   2.9611   4.5751   4.7462

          k = 0.0000 0.0000 0.3088 ( 10899 PWs)   bands (ev):

   -12.4293 -12.2886  -7.3194  -7.1864  -6.5428  -6.3483  -5.0185  -5.0022
    -4.5959  -4.5881  -3.4601  -3.3470   2.3276   2.6770   4.4345   4.6449

          k = 0.0000 0.1382 0.0000 ( 10864 PWs)   bands (ev):

   -12.5575 -12.1954  -7.1191  -6.9823  -6.4092  -6.2634  -5.3235  -5.0035
    -4.7970  -4.7407  -3.6542  -3.3614   2.0663   2.9144   4.6862   4.7304

          k = 0.0000 0.1382 0.1544 ( 10889 PWs)   bands (ev):

   -12.5158 -12.2205  -7.3121  -7.0182  -6.5432  -6.1501  -5.1592  -4.8927
    -4.8410  -4.6823  -3.6014  -3.3593   2.1220   2.8197   4.6496   4.8515

          k = 0.0000 0.1382 0.3088 ( 10900 PWs)   bands (ev):

   -12.4120 -12.2977  -7.4402  -7.3159  -6.3925  -6.2155  -5.0068  -4.9420
    -4.6614  -4.5764  -3.4701  -3.3741   2.3088   2.5854   4.6000   4.7951

          k = 0.0000 0.2763 0.0000 ( 10878 PWs)   bands (ev):

   -12.4492 -12.3109  -7.0062  -6.9520  -6.5275  -6.4770  -5.2107  -5.0730
    -4.6760  -4.6748  -3.5522  -3.4358   2.2685   2.5792   4.7301   4.9046

          k = 0.0000 0.2763 0.1544 ( 10877 PWs)   bands (ev):

   -12.4245 -12.3114  -7.3179  -7.1881  -6.3813  -6.2042  -5.1109  -4.9973
    -4.6999  -4.6381  -3.5340  -3.4353   2.2670   2.5245   4.8560   5.0306

          k = 0.0000 0.2763 0.3088 ( 10892 PWs)   bands (ev):

   -12.3701 -12.3261  -7.5566  -7.5064  -6.1617  -6.0877  -4.9399  -4.8613
    -4.7224  -4.6318  -3.4717  -3.4320   2.3132   2.4156   5.0456   5.1789

          k = 0.1662 0.0000 0.0830 ( 10876 PWs)   bands (ev):

   -12.5313 -12.1447  -7.1151  -6.9032  -6.6358  -6.1852  -5.1730  -5.0528
    -4.8772  -4.8477  -3.7440  -3.4395   1.9442   2.7701   4.4905   4.5229

          k = 0.1662 0.0000 0.2374 ( 10892 PWs)   bands (ev):

   -12.4509 -12.2050  -7.2068  -7.1184  -6.6588  -6.2337  -5.0959  -5.0058
    -4.7658  -4.6156  -3.6849  -3.4670   2.1224   2.6005   4.3856   4.6871

          k = 0.1662 0.0000 0.3918 ( 10890 PWs)   bands (ev):

   -12.3278 -12.3204  -7.3124  -7.1721  -6.4802  -6.3712  -5.1881  -5.1215
    -4.6259  -4.4933  -3.5128  -3.4600   2.3611   2.4844   4.5092   4.6424

          k = 0.1662 0.0000-0.2258 ( 10877 PWs)   bands (ev):

   -12.4483 -12.2151  -7.2826  -7.0022  -6.4514  -6.3213  -5.3613  -5.1237
    -4.7459  -4.5802  -3.5549  -3.3741   2.1315   2.8267   4.6623   4.6998

          k = 0.1662 0.0000-0.0714 ( 10873 PWs)   bands (ev):

   -12.5310 -12.1497  -7.1338  -6.9230  -6.3944  -6.2256  -5.4970  -5.0774
    -4.9208  -4.7122  -3.6879  -3.3685   1.9775   2.9067   4.5194   4.6153

          k = 0.1662 0.1382 0.0830 ( 10885 PWs)   bands (ev):

   -12.4953 -12.1823  -7.1299  -6.9146  -6.6223  -6.2174  -5.2360  -5.0477
    -4.8388  -4.7650  -3.7258  -3.4618   2.0399   2.7229   4.5491   4.7017

          k = 0.1662 0.1382 0.2374 ( 10904 PWs)   bands (ev):

   -12.4254 -12.2259  -7.3045  -7.2037  -6.5113  -6.1878  -5.1485  -4.9645
    -4.7737  -4.5887  -3.6849  -3.4745   2.1698   2.5855   4.4901   4.8646

          k = 0.1662 0.1382 0.3918 ( 10881 PWs)   bands (ev):

   -12.3228 -12.3168  -7.3999  -7.2840  -6.4389  -6.2143  -5.1954  -5.0511
    -4.6447  -4.5129  -3.5273  -3.4451   2.3075   2.4626   4.5038   4.8755

          k = 0.1662 0.1382-0.2258 ( 10880 PWs)   bands (ev):

   -12.4239 -12.2347  -7.3379  -7.0605  -6.5229  -6.2004  -5.3118  -5.0610
    -4.7422  -4.6061  -3.5319  -3.3855   2.1302   2.6810   4.6625   4.7373

          k = 0.1662 0.1382-0.0714 ( 10861 PWs)   bands (ev):

   -12.4954 -12.1866  -7.1145  -6.9096  -6.4711  -6.3152  -5.4270  -5.0281
    -4.8665  -4.7333  -3.6534  -3.3909   2.0323   2.7900   4.4939   4.8296

          k = 0.1662 0.2763 0.0830 ( 10900 PWs)   bands (ev):

   -12.4000 -12.2803  -7.1091  -7.0132  -6.5036  -6.3350  -5.2327  -5.1431
    -4.7247  -4.6844  -3.6515  -3.5382   2.2818   2.5511   4.8272   5.0029

          k = 0.1662 0.2763 0.2374 ( 10893 PWs)   bands (ev):

   -12.3603 -12.2837  -7.3916  -7.3443  -6.2854  -6.1650  -5.1489  -5.0567
    -4.6769  -4.5942  -3.6298  -3.5311   2.3114   2.4872   4.8170   5.1349

          k = 0.1662 0.2763 0.3918 ( 10887 PWs)   bands (ev):

   -12.3138 -12.3115  -7.4950  -7.4535  -6.2699  -6.1450  -5.1106  -5.0083
    -4.6466  -4.5741  -3.5093  -3.4625   2.2871   2.3679   4.7199   5.0559

          k = 0.1662 0.2763-0.2258 ( 10886 PWs)   bands (ev):

   -12.3616 -12.2890  -7.3615  -7.2486  -6.4013  -6.2380  -5.1515  -5.0166
    -4.7230  -4.6591  -3.4773  -3.4212   2.1930   2.3977   4.7366   4.8134

          k = 0.1662 0.2763-0.0714 ( 10883 PWs)   bands (ev):

   -12.4012 -12.2831  -7.0409  -6.9297  -6.5593  -6.4677  -5.2641  -5.0878
    -4.7600  -4.7258  -3.5629  -3.4599   2.2119   2.5042   4.6670   4.9197

          k = 0.3323 0.0000 0.1660 ( 10872 PWs)   bands (ev):

   -12.3878 -12.1331  -7.1718  -7.0060  -6.5965  -6.2460  -5.2921  -5.1079
    -4.8513  -4.6337  -3.9497  -3.7191   1.9811   2.3145   4.3685   4.5922

          k = 0.3323 0.0000 0.3204 ( 10897 PWs)   bands (ev):

   -12.3212 -12.1878  -7.3351  -7.0439  -6.4945  -6.2580  -5.3622  -5.1932
    -4.7271  -4.4995  -3.8813  -3.7080   2.1949   2.2240   4.5740   4.7259

          k = 0.3323 0.0000 0.4748 ( 10921 PWs)   bands (ev):

   -12.2805 -12.2408  -7.2687  -6.9383  -6.4297  -6.3465  -5.5477  -5.3251
    -4.7379  -4.5688  -3.6330  -3.6130   2.0711   2.4706   4.3725   4.5623

          k = 0.3323 0.0000-0.1429 ( 10880 PWs)   bands (ev):

   -12.3682 -12.1725  -7.0532  -6.7885  -6.4957  -6.4057  -5.6608  -5.3556
    -4.8274  -4.7016  -3.6519  -3.4804   1.9827   2.5340   4.1879   4.2728

          k = 0.3323 0.0000 0.0116 ( 10867 PWs)   bands (ev):

   -12.4089 -12.1315  -6.9348  -6.8441  -6.6757  -6.3347  -5.4234  -5.3220
    -4.8210  -4.7990  -3.8080  -3.5596   1.9312   2.3895   4.0936   4.3970

          k = 0.3323 0.1382 0.1660 ( 10887 PWs)   bands (ev):

   -12.3625 -12.1561  -7.1661  -7.0237  -6.5904  -6.2730  -5.3358  -5.1761
    -4.7849  -4.6106  -3.9163  -3.6865   2.0987   2.3631   4.3388   4.7272

          k = 0.3323 0.1382 0.3204 ( 10900 PWs)   bands (ev):

   -12.3059 -12.1977  -7.3207  -7.0949  -6.5256  -6.2567  -5.4031  -5.1696
    -4.6994  -4.5023  -3.8295  -3.6699   2.1875   2.3289   4.3833   4.7946

          k = 0.3323 0.1382 0.4748 ( 10887 PWs)   bands (ev):

   -12.2734 -12.2412  -7.2537  -6.9959  -6.5693  -6.3133  -5.4470  -5.2624
    -4.7378  -4.5937  -3.6095  -3.5959   2.0787   2.4536   4.3158   4.5791

          k = 0.3323 0.1382-0.1429 ( 10882 PWs)   bands (ev):

   -12.3475 -12.1887  -7.0378  -6.8245  -6.5812  -6.4705  -5.5263  -5.2545
    -4.8287  -4.7560  -3.6348  -3.4979   2.0229   2.5042   4.1961   4.4463

          k = 0.3323 0.1382 0.0116 ( 10885 PWs)   bands (ev):

   -12.3816 -12.1569  -6.9256  -6.8466  -6.7002  -6.3964  -5.4430  -5.2229
    -4.8543  -4.7721  -3.7899  -3.5767   2.0316   2.4204   4.2219   4.5280

          k = 0.3323 0.2763 0.1660 ( 10902 PWs)   bands (ev):

   -12.2970 -12.2179  -7.1406  -7.0842  -6.5074  -6.3718  -5.3663  -5.3007
    -4.6800  -4.6142  -3.7931  -3.6864   2.3266   2.4243   4.4506   4.6999

          k = 0.3323 0.2763 0.3204 ( 10898 PWs)   bands (ev):

   -12.2682 -12.2267  -7.2801  -7.2000  -6.4875  -6.3530  -5.3636  -5.2416
    -4.6101  -4.5326  -3.7114  -3.6402   2.2919   2.3801   4.3397   4.5571

          k = 0.3323 0.2763 0.4748 ( 10897 PWs)   bands (ev):

   -12.2581 -12.2457  -7.2146  -7.1235  -6.5834  -6.4413  -5.2583  -5.1831
    -4.7240  -4.6612  -3.5721  -3.5683   2.1708   2.3401   4.3542   4.5092

          k = 0.3323 0.2763-0.1429 ( 10918 PWs)   bands (ev):

   -12.2949 -12.2341  -6.9992  -6.9116  -6.6520  -6.5764  -5.2828  -5.1413
    -4.8637  -4.8371  -3.5928  -3.5416   2.1673   2.3713   4.4103   4.6345

          k = 0.3323 0.2763 0.0116 ( 10902 PWs)   bands (ev):

   -12.3109 -12.2249  -6.9079  -6.8793  -6.6645  -6.5412  -5.3511  -5.2220
    -4.8417  -4.7767  -3.7191  -3.6303   2.2529   2.4142   4.5251   4.7077

          k =-0.4985 0.0000-0.2489 ( 10874 PWs)   bands (ev):

   -12.3100 -12.1272  -7.3853  -6.9555  -6.4478  -6.2484  -5.3962  -5.1431
    -4.8125  -4.5155  -4.0958  -3.8936   2.0549   2.1412   4.4617   4.9521

          k =-0.4985 0.0000-0.0945 ( 10910 PWs)   bands (ev):

   -12.2984 -12.1508  -7.2663  -6.8958  -6.4679  -6.3114  -5.4782  -5.3073
    -4.7914  -4.6068  -3.9397  -3.7592   2.0913   2.1106   4.1571   4.6616

          k =-0.4985 0.0000 0.0599 ( 10883 PWs)   bands (ev):

   -12.2624 -12.2062  -6.9738  -6.7957  -6.5238  -6.4876  -5.5789  -5.5238
    -4.7914  -4.7487  -3.6792  -3.6022   2.1000   2.1594   3.9697   4.1779

          k =-0.4985 0.1382-0.2489 ( 10894 PWs)   bands (ev):

   -12.2911 -12.1429  -7.3227  -6.9550  -6.4927  -6.3481  -5.4507  -5.2229
    -4.7300  -4.5124  -3.9961  -3.8312   2.1771   2.2065   4.2766   4.7666

          k =-0.4985 0.1382-0.0945 ( 10897 PWs)   bands (ev):

   -12.2823 -12.1627  -7.2103  -6.9053  -6.5368  -6.4092  -5.4658  -5.2755
    -4.7813  -4.6076  -3.8839  -3.7315   2.1205   2.2336   4.1260   4.6795

          k =-0.4985 0.1382 0.0599 ( 10903 PWs)   bands (ev):

   -12.2540 -12.2085  -6.9443  -6.8203  -6.6195  -6.5627  -5.4755  -5.3932
    -4.8391  -4.7714  -3.6775  -3.6089   2.1328   2.2246   4.0408   4.3088

          k =-0.4985 0.2763-0.2489 ( 10904 PWs)   bands (ev):

   -12.2429 -12.1861  -7.1610  -7.0022  -6.5574  -6.5180  -5.4782  -5.3803
    -4.6039  -4.5311  -3.8195  -3.7560   2.3413   2.3633   4.1616   4.4132

          k =-0.4985 0.2763-0.0945 ( 10895 PWs)   bands (ev):

   -12.2420 -12.1961  -7.0686  -6.9440  -6.6359  -6.5889  -5.3993  -5.3047
    -4.7204  -4.6446  -3.7664  -3.7059   2.2675   2.3446   4.1936   4.4674

          k =-0.4985 0.2763 0.0599 ( 10910 PWs)   bands (ev):

   -12.2351 -12.2176  -6.8869  -6.8635  -6.7303  -6.6830  -5.2789  -5.2212
    -4.9109  -4.8585  -3.6600  -3.6313   2.2371   2.2883   4.3061   4.4824

     the Fermi energy is     1.0748 ev

!    total energy              =     -39.61449061 Ry
     estimated scf accuracy    <          9.9E-11 Ry
     smearing contrib. (-TS)   =      -0.00000000 Ry
     internal energy E=F+TS    =     -39.61449061 Ry

     The total energy is F=E-TS. E is the sum of the following terms:
     one-electron contribution =     -16.33376501 Ry
     hartree contribution      =      13.53283550 Ry
     xc contribution           =     -20.21474515 Ry
     ewald contribution        =     -16.59881595 Ry

     convergence has been achieved in   9 iterations

     Forces acting on atoms (cartesian axes, Ry/au):

     atom    1 type  1   force =    -0.00012483   -0.00036065   -0.00082145
     atom    2 type  1   force =     0.00012483    0.00036065    0.00082145
     atom    3 type  1   force =     0.00012483   -0.00036065    0.00082145
     atom    4 type  1   force =    -0.00012483    0.00036065   -0.00082145
     atom    5 type  2   force =     0.00165043   -0.00037411   -0.00188237
     atom    6 type  2   force =    -0.00165043    0.00037411    0.00188237
     atom    7 type  2   force =    -0.00165043   -0.00037411    0.00188237
     atom    8 type  2   force =     0.00165043    0.00037411   -0.00188237
     atom    9 type  2   force =    -0.00120904   -0.00172832   -0.00025212
     atom   10 type  2   force =     0.00120904    0.00172832    0.00025212
     atom   11 type  2   force =     0.00120904   -0.00172832    0.00025212
     atom   12 type  2   force =    -0.00120904    0.00172832   -0.00025212
     atom   13 type  2   force =    -0.00225505   -0.00144877   -0.00035148
     atom   14 type  2   force =     0.00225505    0.00144877    0.00035148
     atom   15 type  2   force =     0.00225505   -0.00144877    0.00035148
     atom   16 type  2   force =    -0.00225505    0.00144877   -0.00035148

     Total force =     0.008729     Total SCF correction =     0.000008


     Computing stress (Cartesian axis) and pressure

          total   stress  (Ry/bohr**3)                   (kbar)     P=        4.66
   0.00003092   0.00000000  -0.00000025            4.55        0.00       -0.04
   0.00000000   0.00004096   0.00000000            0.00        6.03        0.00
  -0.00000025   0.00000000   0.00002318           -0.04        0.00        3.41

     Energy error            =      2.3E-04 Ry
     Gradient error          =      2.3E-03 Ry/Bohr
     Cell gradient error     =      6.0E+00 kbar

     number of scf cycles    =   3
     number of bfgs steps    =   2

     enthalpy           old  =     -39.6142629682 Ry
     enthalpy           new  =     -39.6144906113 Ry

     CASE: enthalpy          _new < enthalpy          _old

     new trust radius        =       0.0173511963 bohr
     new conv_thr            =       0.0000000002 Ry

     new unit-cell volume =   1009.57177 a.u.^3 (   149.60310 Ang^3 )
     density =      0.61430 g/cm^3

CELL_PARAMETERS (alat=  8.10805891)
   1.005383934   0.000000000  -0.000028055
   0.000000000   1.451485996   0.000000000
  -0.648402115   0.000000000   1.297919558

ATOMIC_POSITIONS (crystal)
B             0.1420780415        0.5435975885        0.6442101431
B             0.8579219585        0.4564024115        0.3557898569
B             0.8579219585        0.0435975885        0.8557898569
B             0.1420780415        0.9564024115        0.1442101431
H             0.0882024647        0.0049493380        0.3106183877
H             0.9117975353        0.9950506620        0.6893816123
H             0.9117975353        0.5049493380        0.1893816123
H             0.0882024647        0.4950506620        0.8106183877
H             0.1413957782        0.1318559957        0.0241203368
H             0.8586042218        0.8681440043        0.9758796632
H             0.8586042218        0.6318559957        0.4758796632
H             0.1413957782        0.3681440043        0.5241203368
H             0.3867719480        0.6512832713        0.6714338007
H             0.6132280520        0.3487167287        0.3285661993
H             0.6132280520        0.1512832713        0.8285661993
H             0.3867719480        0.8487167287        0.1714338007



     Writing config-only to output data dir ./bh3.save/
     NEW-OLD atomic charge density approx. for the potential
     extrapolated charge   24.16838, renormalised to   24.00000

     total cpu time spent up to now is        6.7 secs

     Self-consistent Calculation

     iteration #  1     ecut=    75.00 Ry     beta= 0.70
     Davidson diagonalization with overlap
     ethr =  1.00E-06,  avg # of iterations =  3.0

     total cpu time spent up to now is        6.9 secs

     total energy              =     -39.61405845 Ry
     estimated scf accuracy    <       0.00037263 Ry

     iteration #  2     ecut=    75.00 Ry     beta= 0.70
     Davidson diagonalization with overlap
     ethr =  1.55E-06,  avg # of iterations =  3.0

     total cpu time spent up to now is        7.1 secs

     total energy              =     -39.61485385 Ry
     estimated scf accuracy    <       0.00105533 Ry

     iteration #  3     ecut=    75.00 Ry     beta= 0.70
     Davidson diagonalization with overlap
     ethr =  1.55E-06,  avg # of iterations =  2.0

     total cpu time spent up to now is        7.3 secs

     total energy              =     -39.61472796 Ry
     estimated scf accuracy    <       0.00028211 Ry

     iteration #  4     ecut=    75.00 Ry     beta= 0.70
     Davidson diagonalization with overlap
     ethr =  1.18E-06,  avg # of iterations =  2.0

     total cpu time spent up to now is        7.5 secs

     total energy              =     -39.61480370 Ry
     estimated scf accuracy    <       0.00000850 Ry

     iteration #  5     ecut=    75.00 Ry     beta= 0.70
     Davidson diagonalization with overlap
     ethr =  3.54E-08,  avg # of iterations =  1.0

     total cpu time spent up to now is        7.6 secs

     total energy              =     -39.61480212 Ry
     estimated scf accuracy    <       0.00000342 Ry

     iteration #  6     ecut=    75.00 Ry     beta= 0.70
     Davidson diagonalization with overlap
     ethr =  1.42E-08,  avg # of iterations =  2.0

     total cpu time spent up to now is        7.8 secs

     total energy              =     -39.61480277 Ry
     estimated scf accuracy    <       0.00000002 Ry

     iteration #  7     ecut=    75.00 Ry     beta= 0.70
     Davidson diagonalization with overlap
     ethr =  1.00E-10,  avg # of iterations =  2.0

     total cpu time spent up to now is        8.0 secs

     total energy              =     -39.61480277 Ry
     estimated scf accuracy    <          2.5E-09 Ry

     iteration #  8     ecut=    75.00 Ry     beta= 0.70
     Davidson diagonalization with overlap
     ethr =  1.03E-11,  avg # of iterations =  2.0

     total cpu time spent up to now is        8.2 secs

     total energy              =     -39.61480277 Ry
     estimated scf accuracy    <          8.5E-10 Ry

     iteration #  9     ecut=    75.00 Ry     beta= 0.70
     Davidson diagonalization with overlap
     ethr =  3.55E-12,  avg # of iterations =  1.0

     total cpu time spent up to now is        8.5 secs

     End of self-consistent calculation

          k = 0.0000 0.0000 0.0000 ( 10845 PWs)   bands (ev):

   -12.6047 -12.1647  -7.1901  -7.0115  -6.3697  -6.1576  -5.3850  -5.0456
    -4.9105  -4.7720  -3.7208  -3.3700   1.9630   3.0293   4.5897   4.6515

          k = 0.0000 0.0000 0.1541 ( 10896 PWs)   bands (ev):

   -12.5579 -12.1998  -7.2746  -7.0245  -6.5588  -6.2098  -5.1704  -4.9605
    -4.8700  -4.7472  -3.6493  -3.3637   2.0447   2.9182   4.5211   4.7136

          k = 0.0000 0.0000 0.3082 ( 10899 PWs)   bands (ev):

   -12.4386 -12.3004  -7.3406  -7.2096  -6.5573  -6.3655  -5.0412  -5.0239
    -4.6253  -4.6175  -3.4899  -3.3780   2.2913   2.6370   4.3857   4.6009

          k = 0.0000 0.1378 0.0000 ( 10864 PWs)   bands (ev):

   -12.5648 -12.2089  -7.1428  -7.0005  -6.4345  -6.2810  -5.3434  -5.0274
    -4.8233  -4.7663  -3.6812  -3.3914   2.0330   2.8727   4.6332   4.6996

          k = 0.0000 0.1378 0.1541 ( 10889 PWs)   bands (ev):

   -12.5238 -12.2336  -7.3305  -7.0420  -6.5594  -6.1725  -5.1816  -4.9176
    -4.8664  -4.7093  -3.6291  -3.3896   2.0880   2.7785   4.5975   4.8178

          k = 0.0000 0.1378 0.3082 ( 10900 PWs)   bands (ev):

   -12.4216 -12.3093  -7.4573  -7.3352  -6.4113  -6.2369  -5.0294  -4.9649
    -4.6900  -4.6060  -3.4996  -3.4046   2.2726   2.5462   4.5514   4.7513

          k = 0.0000 0.2756 0.0000 ( 10878 PWs)   bands (ev):

   -12.4583 -12.3224  -7.0316  -6.9743  -6.5462  -6.4916  -5.2320  -5.0962
    -4.7045  -4.7026  -3.5804  -3.4653   2.2336   2.5413   4.6833   4.8643

          k = 0.0000 0.2756 0.1541 ( 10877 PWs)   bands (ev):

   -12.4341 -12.3229  -7.3350  -7.2076  -6.4014  -6.2274  -5.1332  -5.0209
    -4.7278  -4.6666  -3.5623  -3.4647   2.2317   2.4867   4.8087   4.9912

          k = 0.0000 0.2756 0.3082 ( 10892 PWs)   bands (ev):

   -12.3806 -12.3374  -7.5706  -7.5213  -6.1855  -6.1125  -4.9636  -4.8860
    -4.7499  -4.6606  -3.5008  -3.4616   2.2769   2.3781   4.9982   5.1348

          k = 0.1658 0.0000 0.0828 ( 10876 PWs)   bands (ev):

   -12.5390 -12.1590  -7.1389  -6.9256  -6.6538  -6.2042  -5.1962  -5.0747
    -4.9019  -4.8723  -3.7703  -3.4686   1.9131   2.7304   4.4403   4.4902

          k = 0.1658 0.0000 0.2369 ( 10892 PWs)   bands (ev):

   -12.4599 -12.2182  -7.2293  -7.1422  -6.6722  -6.2525  -5.1168  -5.0273
    -4.7942  -4.6442  -3.7119  -3.4963   2.0893   2.5617   4.3370   4.6491

          k = 0.1658 0.0000 0.3910 ( 10890 PWs)   bands (ev):

   -12.3389 -12.3315  -7.3333  -7.1950  -6.4963  -6.3883  -5.2089  -5.1412
    -4.6556  -4.5238  -3.5415  -3.4896   2.3239   2.4467   4.4644   4.5986

          k = 0.1658 0.0000-0.2254 ( 10877 PWs)   bands (ev):

   -12.4574 -12.2282  -7.3036  -7.0256  -6.4695  -6.3389  -5.3811  -5.1442
    -4.7739  -4.6093  -3.5828  -3.4041   2.0966   2.7850   4.6142   4.6629

          k = 0.1658 0.0000-0.0713 ( 10873 PWs)   bands (ev):

   -12.5388 -12.1640  -7.1570  -6.9425  -6.4200  -6.2438  -5.5143  -5.0993
    -4.9457  -4.7393  -3.7141  -3.3983   1.9451   2.8651   4.4870   4.5658

          k = 0.1658 0.1378 0.0828 ( 10885 PWs)   bands (ev):

   -12.5036 -12.1960  -7.1516  -6.9395  -6.6382  -6.2375  -5.2571  -5.0700
    -4.8650  -4.7911  -3.7520  -3.4908   2.0076   2.6833   4.5059   4.6614

          k = 0.1658 0.1378 0.2369 ( 10904 PWs)   bands (ev):

   -12.4349 -12.2388  -7.3231  -7.2249  -6.5288  -6.2089  -5.1684  -4.9877
    -4.8014  -4.6180  -3.7115  -3.5039   2.1360   2.5465   4.4433   4.8246

          k = 0.1658 0.1378 0.3910 ( 10881 PWs)   bands (ev):

   -12.3340 -12.3280  -7.4177  -7.3038  -6.4558  -6.2365  -5.2153  -5.0728
    -4.6741  -4.5432  -3.5556  -3.4750   2.2712   2.4248   4.4609   4.8311

          k = 0.1658 0.1378-0.2254 ( 10880 PWs)   bands (ev):

   -12.4334 -12.2475  -7.3562  -7.0835  -6.5377  -6.2232  -5.3316  -5.0832
    -4.7703  -4.6349  -3.5601  -3.4155   2.0956   2.6410   4.6223   4.6948

          k = 0.1658 0.1378-0.0713 ( 10861 PWs)   bands (ev):

   -12.5037 -12.2003  -7.1370  -6.9311  -6.4924  -6.3336  -5.4451  -5.0517
    -4.8928  -4.7599  -3.6799  -3.4205   1.9995   2.7496   4.4577   4.7821

          k = 0.1658 0.2756 0.0828 ( 10900 PWs)   bands (ev):

   -12.4100 -12.2923  -7.1298  -7.0359  -6.5215  -6.3553  -5.2530  -5.1643
    -4.7526  -4.7127  -3.6781  -3.5664   2.2466   2.5130   4.7839   4.9604

          k = 0.1658 0.2756 0.2369 ( 10893 PWs)   bands (ev):

   -12.3709 -12.2957  -7.4079  -7.3618  -6.3073  -6.1883  -5.1692  -5.0791
    -4.7052  -4.6236  -3.6569  -3.5599   2.2755   2.4490   4.7723   5.0941

          k = 0.1658 0.2756 0.3910 ( 10887 PWs)   bands (ev):

   -12.3253 -12.3230  -7.5101  -7.4691  -6.2907  -6.1688  -5.1322  -5.0317
    -4.6755  -4.6038  -3.5379  -3.4921   2.2510   2.3309   4.6777   5.0151

          k = 0.1658 0.2756-0.2254 ( 10886 PWs)   bands (ev):

   -12.3723 -12.3009  -7.3779  -7.2669  -6.4202  -6.2604  -5.1736  -5.0406
    -4.7512  -4.6876  -3.5063  -3.4509   2.1583   2.3609   4.6991   4.7712

          k = 0.1658 0.2756-0.0713 ( 10883 PWs)   bands (ev):

   -12.4112 -12.2951  -7.0632  -6.9541  -6.5749  -6.4854  -5.2845  -5.1109
    -4.7880  -4.7534  -3.5906  -3.4889   2.1775   2.4669   4.6292   4.8749

          k = 0.3316 0.0000 0.1656 ( 10872 PWs)   bands (ev):

   -12.3979 -12.1475  -7.1907  -7.0315  -6.6143  -6.2644  -5.3112  -5.1305
    -4.8774  -4.6622  -3.9726  -3.7444   1.9507   2.2793   4.3343   4.5452

          k = 0.3316 0.0000 0.3197 ( 10897 PWs)   bands (ev):

   -12.3325 -12.2012  -7.3525  -7.0684  -6.5133  -6.2773  -5.3805  -5.2131
    -4.7552  -4.5300  -3.9045  -3.7337   2.1618   2.1887   4.5351   4.6806

          k = 0.3316 0.0000 0.4738 ( 10921 PWs)   bands (ev):

   -12.2923 -12.2535  -7.2877  -6.9635  -6.4480  -6.3657  -5.5639  -5.3437
    -4.7660  -4.5985  -3.6594  -3.6400   2.0372   2.4336   4.3353   4.5251

          k = 0.3315 0.0000-0.1426 ( 10880 PWs)   bands (ev):

   -12.3786 -12.1864  -7.0766  -6.8141  -6.5149  -6.4220  -5.6755  -5.3747
    -4.8545  -4.7298  -3.6780  -3.5089   1.9505   2.4970   4.1558   4.2346

          k = 0.3315 0.0000 0.0115 ( 10867 PWs)   bands (ev):

   -12.4186 -12.1461  -6.9616  -6.8690  -6.6909  -6.3506  -5.4426  -5.3415
    -4.8475  -4.8259  -3.8325  -3.5870   1.9008   2.3546   4.0627   4.3542

          k = 0.3316 0.1378 0.1656 ( 10887 PWs)   bands (ev):

   -12.3730 -12.1702  -7.1852  -7.0486  -6.6072  -6.2923  -5.3540  -5.1975
    -4.8121  -4.6398  -3.9393  -3.7130   2.0663   2.3272   4.3015   4.6841

          k = 0.3316 0.1378 0.3197 ( 10900 PWs)   bands (ev):

   -12.3175 -12.2110  -7.3385  -7.1181  -6.5419  -6.2775  -5.4201  -5.1909
    -4.7278  -4.5329  -3.8536  -3.6967   2.1534   2.2929   4.3445   4.7530

          k = 0.3316 0.1378 0.4738 ( 10887 PWs)   bands (ev):

   -12.2854 -12.2540  -7.2729  -7.0199  -6.5826  -6.3343  -5.4654  -5.2828
    -4.7659  -4.6232  -3.6365  -3.6233   2.0451   2.4161   4.2803   4.5401

          k = 0.3315 0.1378-0.1426 ( 10882 PWs)   bands (ev):

   -12.3582 -12.2024  -7.0612  -6.8498  -6.5959  -6.4874  -5.5438  -5.2760
    -4.8560  -4.7832  -3.6612  -3.5261   1.9904   2.4668   4.1629   4.4076

          k = 0.3315 0.1378 0.0115 ( 10885 PWs)   bands (ev):

   -12.3919 -12.1711  -6.9520  -6.8730  -6.7128  -6.4127  -5.4608  -5.2446
    -4.8808  -4.7991  -3.8143  -3.6040   1.9996   2.3844   4.1894   4.4845

          k = 0.3316 0.2756 0.1656 ( 10902 PWs)   bands (ev):

   -12.3087 -12.2310  -7.1606  -7.1065  -6.5250  -6.3911  -5.3837  -5.3196
    -4.7086  -4.6435  -3.8183  -3.7135   2.2905   2.3870   4.4121   4.6598

          k = 0.3316 0.2756 0.3197 ( 10898 PWs)   bands (ev):

   -12.2805 -12.2396  -7.2987  -7.2205  -6.5037  -6.3722  -5.3817  -5.2623
    -4.6397  -4.5630  -3.7379  -3.6680   2.2559   2.3429   4.3024   4.5185

          k = 0.3316 0.2756 0.4738 ( 10897 PWs)   bands (ev):

   -12.2705 -12.2584  -7.2340  -7.1443  -6.5970  -6.4590  -5.2803  -5.2059
    -4.7523  -4.6900  -3.5999  -3.5962   2.1364   2.3035   4.3181   4.4703

          k = 0.3315 0.2756-0.1426 ( 10918 PWs)   bands (ev):

   -12.3067 -12.2469  -7.0218  -6.9357  -6.6645  -6.5925  -5.3044  -5.1652
    -4.8901  -4.8636  -3.6197  -3.5692   2.1331   2.3348   4.3745   4.5939

          k = 0.3315 0.2756 0.0115 ( 10902 PWs)   bands (ev):

   -12.3224 -12.2378  -6.9332  -6.9045  -6.6781  -6.5567  -5.3702  -5.2433
    -4.8682  -4.8040  -3.7445  -3.6571   2.2178   2.3773   4.4883   4.6652

          k =-0.4973 0.0000-0.2485 ( 10874 PWs)   bands (ev):

   -12.3215 -12.1417  -7.4000  -6.9813  -6.4691  -6.2678  -5.4144  -5.1655
    -4.8389  -4.5459  -4.1156  -3.9161   2.0242   2.1071   4.4243   4.9055

          k =-0.4973 0.0000-0.0944 ( 10910 PWs)   bands (ev):

   -12.3101 -12.1649  -7.2825  -6.9225  -6.4888  -6.3295  -5.4955  -5.3271
    -4.8185  -4.6361  -3.9616  -3.7840   2.0583   2.0787   4.1239   4.6193

          k =-0.4973 0.0000 0.0597 ( 10883 PWs)   bands (ev):

   -12.2747 -12.2194  -6.9954  -6.8249  -6.5422  -6.5015  -5.5953  -5.5408
    -4.8190  -4.7766  -3.7049  -3.6292   2.0676   2.1264   3.9378   4.1428

          k =-0.4973 0.1378-0.2485 ( 10894 PWs)   bands (ev):

   -12.3030 -12.1572  -7.3388  -6.9814  -6.5123  -6.3651  -5.4674  -5.2436
    -4.7579  -4.5429  -4.0181  -3.8555   2.1441   2.1718   4.2405   4.7224

          k =-0.4973 0.1378-0.0944 ( 10897 PWs)   bands (ev):

   -12.2943 -12.1766  -7.2279  -6.9320  -6.5554  -6.4253  -5.4830  -5.2964
    -4.8086  -4.6370  -3.9070  -3.7571   2.0875   2.1991   4.0922   4.6371

          k =-0.4973 0.1378 0.0597 ( 10903 PWs)   bands (ev):

   -12.2665 -12.2217  -6.9672  -6.8483  -6.6347  -6.5756  -5.4939  -5.4134
    -4.8659  -4.7989  -3.7032  -3.6358   2.0998   2.1902   4.0080   4.2723

          k =-0.4973 0.2756-0.2485 ( 10904 PWs)   bands (ev):

   -12.2555 -12.1997  -7.1814  -7.0281  -6.5737  -6.5320  -5.4939  -5.3979
    -4.6336  -4.5616  -3.8453  -3.7827   2.3048   2.3266   4.1264   4.3738

          k =-0.4973 0.2756-0.0944 ( 10895 PWs)   bands (ev):

   -12.2547 -12.2096  -7.0905  -6.9707  -6.6498  -6.6011  -5.4177  -5.3251
    -4.7486  -4.6736  -3.7920  -3.7325   2.2320   2.3079   4.1582   4.4278

          k =-0.4973 0.2756 0.0597 ( 10910 PWs)   bands (ev):

   -12.2480 -12.2308  -6.9137  -6.8897  -6.7402  -6.6945  -5.3009  -5.2446
    -4.9363  -4.8846  -3.6860  -3.6578   2.2020   2.2525   4.2698   4.4432

     the Fermi energy is     1.0401 ev

!    total energy              =     -39.61480277 Ry
     estimated scf accuracy    <          8.8E-11 Ry
     smearing contrib. (-TS)   =      -0.00000000 Ry
     internal energy E=F+TS    =     -39.61480277 Ry

     The total energy is F=E-TS. E is the sum of the following terms:
     one-electron contribution =     -16.50939060 Ry
     hartree contribution      =      13.59456541 Ry
     xc contribution           =     -20.20344662 Ry
     ewald contribution        =     -16.49653097 Ry

     convergence has been achieved in   9 iterations

     Forces acting on atoms (cartesian axes, Ry/au):

     atom    1 type  1   force =    -0.00023190   -0.00056797   -0.00132898
     atom    2 type  1   force =     0.00023190    0.00056797    0.00132898
     atom    3 type  1   force =     0.00023190   -0.00056797    0.00132898
     atom    4 type  1   force =    -0.00023190    0.00056797   -0.00132898
     atom    5 type  2   force =     0.00204659   -0.00052778   -0.00262719
     atom    6 type  2   force =    -0.00204659    0.00052778    0.00262719
     atom    7 type  2   force =    -0.00204659   -0.00052778    0.00262719
     atom    8 type  2   force =     0.00204659    0.00052778   -0.00262719
     atom    9 type  2   force =    -0.00159639   -0.00247611   -0.00029209
     atom   10 type  2   force =     0.00159639    0.00247611    0.00029209
     atom   11 type  2   force =     0.00159639   -0.00247611    0.00029209
     atom   12 type  2   force =    -0.00159639    0.00247611   -0.00029209
     atom   13 type  2   force =    -0.00295456   -0.00201331   -0.00063710
     atom   14 type  2   force =     0.00295456    0.00201331    0.00063710
     atom   15 type  2   force =     0.00295456   -0.00201331    0.00063710
     atom   16 type  2   force =    -0.00295456    0.00201331   -0.00063710

     Total force =     0.011911     Total SCF correction =     0.000008


     Computing stress (Cartesian axis) and pressure

          total   stress  (Ry/bohr**3)                   (kbar)     P=        2.70
   0.00001926   0.00000000  -0.00000111            2.83        0.00       -0.16
   0.00000000   0.00002943   0.00000000            0.00        4.33        0.00
  -0.00000111   0.00000000   0.00000637           -0.16        0.00        0.94

     Energy error            =      3.1E-04 Ry
     Gradient error          =      3.0E-03 Ry/Bohr
     Cell gradient error     =      4.3E+00 kbar

     number of scf cycles    =   4
     number of bfgs steps    =   3

     enthalpy           old  =     -39.6144906113 Ry
     enthalpy           new  =     -39.6148027725 Ry

     CASE: enthalpy          _new < enthalpy          _old

     new trust radius        =       0.0260472121 bohr
     new conv_thr            =       0.0000000003 Ry

     new unit-cell volume =   1020.03676 a.u.^3 (   151.15385 Ang^3 )
     density =      0.60800 g/cm^3

CELL_PARAMETERS (alat=  8.10805891)
   1.008792757   0.000000000  -0.000087591
   0.000000000   1.457435428   0.000000000
  -0.650677326   0.000000000   1.301645461

ATOMIC_POSITIONS (crystal)
B             0.1419139656        0.5435093183        0.6440156977
B             0.8580860344        0.4564906817        0.3559843023
B             0.8580860344        0.0435093183        0.8559843023
B             0.1419139656        0.9564906817        0.1440156977
H             0.0884596515        0.0048865049        0.3101696147
H             0.9115403485        0.9951134951        0.6898303853
H             0.9115403485        0.5048865049        0.1898303853
H             0.0884596515        0.4951134951        0.8101696147
H             0.1409747123        0.1314858233        0.0240625909
H             0.8590252877        0.8685141767        0.9759374091
[...]
        k(   33) = (   0.2978676   0.1231186  -0.1307179), wk =   0.0533333
        k(   34) = (   0.2994115   0.1231186   0.0141890), wk =   0.0533333
        k(   35) = (   0.3009554   0.2462371   0.1590959), wk =   0.0533333
        k(   36) = (   0.3024992   0.2462371   0.3040028), wk =   0.0533333
        k(   37) = (   0.3040431   0.2462371   0.4489097), wk =   0.0533333
        k(   38) = (   0.2978676   0.2462371  -0.1307179), wk =   0.0533333
        k(   39) = (   0.2994115   0.2462371   0.0141890), wk =   0.0533333
        k(   40) = (  -0.4514331   0.0000000  -0.2386438), wk =   0.0133333
        k(   41) = (  -0.4498892   0.0000000  -0.0937369), wk =   0.0266667
        k(   42) = (  -0.4483453   0.0000000   0.0511700), wk =   0.0266667
        k(   43) = (  -0.4514331   0.1231186  -0.2386438), wk =   0.0266667
        k(   44) = (  -0.4498892   0.1231186  -0.0937369), wk =   0.0533333
        k(   45) = (  -0.4483453   0.1231186   0.0511700), wk =   0.0533333
        k(   46) = (  -0.4514331   0.2462371  -0.2386438), wk =   0.0266667
        k(   47) = (  -0.4498892   0.2462371  -0.0937369), wk =   0.0533333
        k(   48) = (  -0.4483453   0.2462371   0.0511700), wk =   0.0533333

     Dense  grid:   163185 G-vectors     FFT dimensions: (  60,  90,  80)

     Smooth grid:   116753 G-vectors     FFT dimensions: (  50,  80,  72)

     Estimated max dynamical RAM per process >       7.96 MB

     Estimated total dynamical RAM >       1.00 GB

     Initial potential from superposition of free atoms

     starting charge      23.9988, renormalised to      24.0000
     Starting wfcs are   28 randomized atomic wfcs

     total cpu time spent up to now is       36.8 secs

     Self-consistent Calculation

     iteration #  1     ecut=    75.00 Ry     beta= 0.70
     Davidson diagonalization with overlap
     c_bands:  1 eigenvalues not converged
     c_bands:  1 eigenvalues not converged
     ethr =  1.00E-06,  avg # of iterations = 16.0

     total cpu time spent up to now is       37.6 secs

     total energy              =     -39.40999945 Ry
     estimated scf accuracy    <       1.24948643 Ry

     iteration #  2     ecut=    75.00 Ry     beta= 0.70
     Davidson diagonalization with overlap
     ethr =  5.21E-03,  avg # of iterations =  2.0

     total cpu time spent up to now is       37.8 secs

     total energy              =     -39.60329229 Ry
     estimated scf accuracy    <       0.11021535 Ry

     iteration #  3     ecut=    75.00 Ry     beta= 0.70
     Davidson diagonalization with overlap
     ethr =  4.59E-04,  avg # of iterations =  2.0

     total cpu time spent up to now is       38.0 secs

     total energy              =     -39.62152556 Ry
     estimated scf accuracy    <       0.00391426 Ry

     iteration #  4     ecut=    75.00 Ry     beta= 0.70
     Davidson diagonalization with overlap
     ethr =  1.63E-05,  avg # of iterations =  4.0

     total cpu time spent up to now is       38.2 secs

     total energy              =     -39.62205762 Ry
     estimated scf accuracy    <       0.00006225 Ry

     iteration #  5     ecut=    75.00 Ry     beta= 0.70
     Davidson diagonalization with overlap
     ethr =  2.59E-07,  avg # of iterations =  4.4

     total cpu time spent up to now is       38.5 secs

     total energy              =     -39.62207397 Ry
     estimated scf accuracy    <       0.00000374 Ry

     iteration #  6     ecut=    75.00 Ry     beta= 0.70
     Davidson diagonalization with overlap
     ethr =  1.56E-08,  avg # of iterations =  2.0

     total cpu time spent up to now is       38.7 secs

     total energy              =     -39.62207454 Ry
     estimated scf accuracy    <       0.00000020 Ry

     iteration #  7     ecut=    75.00 Ry     beta= 0.70
     Davidson diagonalization with overlap
     ethr =  8.34E-10,  avg # of iterations =  2.0

     total cpu time spent up to now is       38.9 secs

     total energy              =     -39.62207456 Ry
     estimated scf accuracy    <          7.4E-09 Ry

     iteration #  8     ecut=    75.00 Ry     beta= 0.70
     Davidson diagonalization with overlap
     ethr =  3.07E-11,  avg # of iterations =  2.4

     total cpu time spent up to now is       39.1 secs

     total energy              =     -39.62207456 Ry
     estimated scf accuracy    <          1.9E-09 Ry

     iteration #  9     ecut=    75.00 Ry     beta= 0.70
     Davidson diagonalization with overlap
     ethr =  7.93E-12,  avg # of iterations =  2.0

     total cpu time spent up to now is       39.3 secs

     total energy              =     -39.62207456 Ry
     estimated scf accuracy    <          1.3E-10 Ry

     iteration # 10     ecut=    75.00 Ry     beta= 0.70
     Davidson diagonalization with overlap
     ethr =  5.39E-13,  avg # of iterations =  2.0

     total cpu time spent up to now is       39.5 secs

     End of self-consistent calculation

          k = 0.0000 0.0000 0.0000 ( 14579 PWs)   bands (ev):

   -13.4683 -13.3039  -8.0685  -7.9152  -7.5105  -7.3226  -6.1944  -6.1048
    -6.0563  -5.9326  -4.6875  -4.5075   1.0041   1.6817   2.8115   3.5598

          k = 0.0015 0.0000 0.1449 ( 14610 PWs)   bands (ev):

   -13.4492 -13.3157  -8.1156  -7.9774  -7.5256  -7.3450  -6.1695  -6.1156
    -5.9592  -5.8541  -4.6636  -4.5166   1.0476   1.6008   2.7945   3.6307

          k = 0.0031 0.0000 0.2898 ( 14590 PWs)   bands (ev):

   -13.4022 -13.3510  -8.1660  -8.1095  -7.4875  -7.4082  -6.1530  -6.1362
    -5.7885  -5.7508  -4.6010  -4.5442   1.1931   1.4101   2.8661   3.2298

          k = 0.0000 0.1231 0.0000 ( 14612 PWs)   bands (ev):

   -13.4529 -13.3199  -8.0485  -7.9216  -7.5119  -7.3578  -6.2329  -6.1001
    -6.0228  -5.9048  -4.6682  -4.5216   1.0567   1.5984   2.8786   3.6609

          k = 0.0015 0.1231 0.1449 ( 14602 PWs)   bands (ev):

   -13.4364 -13.3284  -8.1180  -7.9975  -7.5072  -7.3508  -6.1913  -6.0949
    -5.9539  -5.8412  -4.6503  -4.5302   1.0811   1.5219   2.8977   3.7266

          k = 0.0031 0.1231 0.2898 ( 14614 PWs)   bands (ev):

   -13.3967 -13.3552  -8.1922  -8.1432  -7.4495  -7.3820  -6.1453  -6.1128
    -5.8045  -5.7590  -4.6005  -4.5539   1.1835   1.3556   3.0122   3.3753

          k = 0.0000 0.2462 0.0000 ( 14618 PWs)   bands (ev):

   -13.4123 -13.3614  -7.9990  -7.9486  -7.4947  -7.4343  -6.2301  -6.1745
    -5.9259  -5.8859  -4.6190  -4.5624   1.2018   1.4046   3.0933   3.4487

          k = 0.0015 0.2462 0.1449 ( 14629 PWs)   bands (ev):

   -13.4030 -13.3617  -8.1022  -8.0523  -7.4496  -7.3852  -6.1817  -6.1335
    -5.8938  -5.8447  -4.6137  -4.5671   1.1840   1.3484   3.1958   3.6154

          k = 0.0031 0.2462 0.2898 ( 14634 PWs)   bands (ev):

   -13.3829 -13.3670  -8.2215  -8.2016  -7.3821  -7.3549  -6.1137  -6.0912
    -5.8161  -5.7890  -4.5936  -4.5755   1.1897   1.2535   3.4137   3.7506

          k = 0.1505 0.0000 0.0795 ( 14609 PWs)   bands (ev):

   -13.4426 -13.3008  -8.0539  -7.9377  -7.5656  -7.3427  -6.1735  -6.1649
    -6.0363  -5.8642  -4.7234  -4.5650   1.0100   1.5066   2.8126   3.4337

          k = 0.1520 0.0000 0.2245 ( 14614 PWs)   bands (ev):

   -13.4113 -13.3204  -8.1092  -8.0789  -7.5461  -7.3666  -6.1887  -6.1360
    -5.8888  -5.7364  -4.7081  -4.5969   1.1135   1.3661   2.8199   3.4459

          k = 0.1536 0.0000 0.3694 ( 14612 PWs)   bands (ev):

   -13.3660 -13.3614  -8.1657  -8.0963  -7.4738  -7.4233  -6.2442  -6.1794
    -5.7823  -5.7066  -4.6222  -4.5999   1.1926   1.3119   3.0826   3.1914

          k = 0.1474 0.0000-0.2103 ( 14592 PWs)   bands (ev):

   -13.4099 -13.3266  -8.1310  -7.9915  -7.4773  -7.4036  -6.3186  -6.1969
    -5.8282  -5.8157  -4.6254  -4.5413   1.0577   1.5149   3.0065   3.5189

          k = 0.1489 0.0000-0.0654 ( 14599 PWs)   bands (ev):

   -13.4426 -13.3038  -8.0527  -7.9035  -7.5139  -7.3578  -6.3274  -6.1870
    -5.9560  -5.9082  -4.6789  -4.5257   1.0020   1.5906   2.8951   3.4380

          k = 0.1505 0.1231 0.0795 ( 14597 PWs)   bands (ev):

   -13.4291 -13.3144  -8.0478  -7.9520  -7.5459  -7.3633  -6.2261  -6.1578
    -5.9901  -5.8538  -4.7088  -4.5786   1.0665   1.4723   2.9163   3.5368

          k = 0.1520 0.1231 0.2245 ( 14601 PWs)   bands (ev):

   -13.4023 -13.3287  -8.1280  -8.0998  -7.5064  -7.3645  -6.2016  -6.1333
    -5.8735  -5.7421  -4.6995  -4.6055   1.1360   1.3538   2.9442   3.5673

          k = 0.1536 0.1231 0.3694 ( 14600 PWs)   bands (ev):

   -13.3649 -13.3612  -8.1828  -8.1263  -7.4591  -7.3945  -6.2316  -6.1651
    -5.7870  -5.7201  -4.6237  -4.5981   1.1761   1.2863   3.1368   3.3740

          k = 0.1474 0.1231-0.2103 ( 14617 PWs)   bands (ev):

   -13.4016 -13.3341  -8.1345  -8.0158  -7.4819  -7.3904  -6.2930  -6.1830
    -5.8440  -5.8140  -4.6161  -4.5478   1.0695   1.4314   3.0895   3.5580

          k = 0.1489 0.1231-0.0654 ( 14606 PWs)   bands (ev):

   -13.4294 -13.3171  -8.0374  -7.9134  -7.5153  -7.3881  -6.3207  -6.1723
    -5.9632  -5.8922  -4.6627  -4.5383   1.0434   1.5200   2.9832   3.5112

          k = 0.1505 0.2462 0.0795 ( 14622 PWs)   bands (ev):

   -13.3938 -13.3500  -8.0257  -7.9881  -7.4907  -7.4197  -6.2407  -6.2062
    -5.9065  -5.8566  -4.6682  -4.6172   1.2081   1.3656   3.2125   3.6250

          k = 0.1520 0.2462 0.2245 ( 14622 PWs)   bands (ev):

   -13.3790 -13.3509  -8.1497  -8.1371  -7.4303  -7.3777  -6.1969  -6.1620
    -5.8235  -5.7700  -4.6713  -4.6331   1.2064   1.2971   3.2964   3.7641

          k = 0.1536 0.2462 0.3694 ( 14613 PWs)   bands (ev):

   -13.3627 -13.3613  -8.2010  -8.1795  -7.4116  -7.3781  -6.1924  -6.1587
    -5.7835  -5.7537  -4.6174  -4.6042   1.1744   1.2231   3.3699   3.7021

          k = 0.1474 0.2462-0.2103 ( 14618 PWs)   bands (ev):

   -13.3801 -13.3543  -8.1227  -8.0749  -7.4517  -7.4051  -6.2311  -6.1812
    -5.8502  -5.8296  -4.5928  -4.5666   1.1293   1.2632   3.3131   3.5443

          k = 0.1489 0.2462-0.0654 ( 14614 PWs)   bands (ev):

   -13.3947 -13.3519  -7.9962  -7.9467  -7.5011  -7.4518  -6.2756  -6.2057
    -5.9282  -5.8911  -4.6214  -4.5736   1.1667   1.3488   3.2213   3.4983

          k = 0.3010 0.0000 0.1591 ( 14627 PWs)   bands (ev):

   -13.3895 -13.2948  -8.0650  -8.0225  -7.5568  -7.3762  -6.2962  -6.2185
    -5.9083  -5.7352  -4.8164  -4.6989   1.0670   1.2073   3.0557   3.2645

          k = 0.3025 0.0000 0.3040 ( 14624 PWs)   bands (ev):

   -13.3652 -13.3133  -8.1489  -8.0400  -7.5151  -7.3919  -6.3272  -6.2338
    -5.8266  -5.6777  -4.7838  -4.7043   1.1181   1.1776   3.2672   3.3017

          k = 0.3040 0.0000 0.4489 ( 14584 PWs)   bands (ev):

   -13.3477 -13.3369  -8.1108  -7.9757  -7.4740  -7.4383  -6.4115  -6.3007
    -5.8316  -5.7528  -4.6631  -4.6560   1.0327   1.3219   3.1045   3.3704

          k = 0.2979 0.0000-0.1307 ( 14580 PWs)   bands (ev):

   -13.3816 -13.3125  -8.0118  -7.8942  -7.5063  -7.4378  -6.4510  -6.3347
    -5.8818  -5.8747  -4.6594  -4.5853   1.0194   1.3786   2.9587   3.1546

          k = 0.2994 0.0000 0.0142 ( 14591 PWs)   bands (ev):

   -13.3976 -13.2964  -7.9774  -7.9253  -7.5661  -7.3985  -6.3467  -6.3200
    -5.9399  -5.8526  -4.7391  -4.6205   1.0282   1.2950   2.9529   3.1008

          k = 0.3010 0.1231 0.1591 ( 14616 PWs)   bands (ev):

   -13.3803 -13.3036  -8.0629  -8.0270  -7.5431  -7.3943  -6.3066  -6.2407
    -5.8778  -5.7401  -4.7991  -4.6996   1.1190   1.2316   3.0594   3.3933

          k = 0.3025 0.1231 0.3040 ( 14605 PWs)   bands (ev):

   -13.3599 -13.3178  -8.1420  -8.0551  -7.5095  -7.4025  -6.3308  -6.2387
    -5.8096  -5.6868  -4.7666  -4.6994   1.1267   1.2132   3.1365   3.4588

          k = 0.3040 0.1231 0.4489 ( 14588 PWs)   bands (ev):

   -13.3461 -13.3374  -8.1023  -7.9943  -7.4958  -7.4369  -6.3804  -6.2886
    -5.8332  -5.7666  -4.6568  -4.6515   1.0494   1.2958   3.1051   3.3683

          k = 0.2979 0.1231-0.1307 ( 14590 PWs)   bands (ev):

   -13.3747 -13.3187  -8.0029  -7.9078  -7.5155  -7.4596  -6.4136  -6.3087
    -5.8989  -5.8830  -4.6522  -4.5924   1.0458   1.3443   3.0327   3.2168

          k = 0.2994 0.1231 0.0142 ( 14597 PWs)   bands (ev):

   -13.3877 -13.3059  -7.9721  -7.9301  -7.5603  -7.4238  -6.3604  -6.2863
    -5.9416  -5.8544  -4.7274  -4.6305   1.0763   1.2976   3.0447   3.1961

          k = 0.3010 0.2462 0.1591 ( 14586 PWs)   bands (ev):

   -13.3563 -13.3270  -8.0545  -8.0400  -7.5010  -7.4426  -6.3114  -6.2848
    -5.8163  -5.7649  -4.7558  -4.7152   1.2183   1.2608   3.1965   3.4303

          k = 0.3025 0.2462 0.3040 ( 14601 PWs)   bands (ev):

   -13.3462 -13.3301  -8.1216  -8.0892  -7.4828  -7.4378  -6.3139  -6.2711
    -5.7645  -5.7167  -4.7287  -4.7014   1.1804   1.2289   3.1673   3.3558

          k = 0.3040 0.2462 0.4489 ( 14608 PWs)   bands (ev):

   -13.3426 -13.3392  -8.0773  -8.0369  -7.4986  -7.4655  -6.3174  -6.2806
    -5.8270  -5.7994  -4.6464  -4.6445   1.1135   1.2145   3.1638   3.2918

          k = 0.2979 0.2462-0.1307 ( 14576 PWs)   bands (ev):

   -13.3568 -13.3354  -7.9775  -7.9412  -7.5220  -7.5000  -6.3337  -6.2854
    -5.9199  -5.9064  -4.6337  -4.6109   1.1292   1.2479   3.2101   3.3082

          k = 0.2994 0.2462 0.0142 ( 14595 PWs)   bands (ev):

   -13.3622 -13.3309  -7.9589  -7.9430  -7.5339  -7.4813  -6.3338  -6.2893
    -5.9178  -5.8760  -4.6960  -4.6583   1.1848   1.2730   3.2501   3.3647

          k =-0.4514 0.0000-0.2386 ( 14610 PWs)   bands (ev):

   -13.3622 -13.2918  -8.1471  -8.0062  -7.5215  -7.3890  -6.3527  -6.2441
    -5.8528  -5.6737  -4.8715  -4.7743   1.0780   1.1177   3.2523   3.4492

          k =-0.4499 0.0000-0.0937 ( 14569 PWs)   bands (ev):

   -13.3581 -13.3012  -8.0857  -7.9713  -7.5229  -7.4101  -6.3907  -6.3074
    -5.8679  -5.7369  -4.7996  -4.7182   1.0691   1.1406   3.0794   3.2755

          k =-0.4483 0.0000 0.0512 ( 14583 PWs)   bands (ev):

   -13.3449 -13.3232  -7.9627  -7.9194  -7.5143  -7.4662  -6.4415  -6.4114
    -5.8899  -5.8482  -4.6763  -4.6437   1.1101   1.1610   2.9304   3.0173

          k =-0.4514 0.1231-0.2386 ( 14604 PWs)   bands (ev):

   -13.3552 -13.2982  -8.1265  -8.0115  -7.5237  -7.4172  -6.3623  -6.2702
    -5.8214  -5.6807  -4.8445  -4.7658   1.1188   1.1643   3.1313   3.3825

          k =-0.4499 0.1231-0.0937 ( 14591 PWs)   bands (ev):

   -13.3524 -13.3063  -8.0692  -7.9772  -7.5294  -7.4372  -6.3856  -6.3065
    -5.8569  -5.7459  -4.7821  -4.7155   1.0973   1.1785   3.0357   3.3232

          k =-0.4483 0.1231 0.0512 ( 14575 PWs)   bands (ev):

   -13.3423 -13.3247  -7.9584  -7.9251  -7.5275  -7.4867  -6.4115  -6.3775
    -5.9043  -5.8634  -4.6739  -4.6468   1.1243   1.1774   2.9724   3.1146

          k =-0.4514 0.2462-0.2386 ( 14596 PWs)   bands (ev):

   -13.3372 -13.3154  -8.0784  -8.0337  -7.5154  -7.4752  -6.3620  -6.3246
    -5.7589  -5.7073  -4.7917  -4.7615   1.2005   1.2276   3.0731   3.2157

          k =-0.4499 0.2462-0.0937 ( 14608 PWs)   bands (ev):

   -13.3376 -13.3200  -8.0315  -7.9967  -7.5286  -7.4928  -6.3610  -6.3250
    -5.8210  -5.7760  -4.7452  -4.7194   1.1707   1.2139   3.0704   3.2336

          k =-0.4483 0.2462 0.0512 ( 14555 PWs)   bands (ev):

   -13.3361 -13.3294  -7.9488  -7.9372  -7.5410  -7.5241  -6.3508  -6.3319
    -5.9212  -5.9004  -4.6662  -4.6554   1.1637   1.1897   3.1203   3.2185

     the Fermi energy is    -0.2039 ev

!    total energy              =     -39.62207456 Ry
     estimated scf accuracy    <          3.5E-12 Ry
     smearing contrib. (-TS)   =       0.00000000 Ry
     internal energy E=F+TS    =     -39.62207456 Ry

     The total energy is F=E-TS. E is the sum of the following terms:
     one-electron contribution =     -27.43236709 Ry
     hartree contribution      =      18.13894017 Ry
     xc contribution           =     -20.17989596 Ry
     ewald contribution        =     -10.14875169 Ry

     convergence has been achieved in  10 iterations

     Forces acting on atoms (cartesian axes, Ry/au):

     atom    1 type  1   force =    -0.00006562    0.00008544   -0.00008432
     atom    2 type  1   force =     0.00006562   -0.00008544    0.00008432
     atom    3 type  1   force =     0.00006562    0.00008544    0.00008432
     atom    4 type  1   force =    -0.00006562   -0.00008544   -0.00008432
     atom    5 type  2   force =     0.00005593    0.00002757    0.00001235
     atom    6 type  2   force =    -0.00005593   -0.00002757   -0.00001235
     atom    7 type  2   force =    -0.00005593    0.00002757   -0.00001235
     atom    8 type  2   force =     0.00005593   -0.00002757    0.00001235
     atom    9 type  2   force =     0.00008862   -0.00001130   -0.00004631
     atom   10 type  2   force =    -0.00008862    0.00001130    0.00004631
     atom   11 type  2   force =    -0.00008862   -0.00001130    0.00004631
     atom   12 type  2   force =     0.00008862    0.00001130   -0.00004631
     atom   13 type  2   force =     0.00011880    0.00003980    0.00016218
     atom   14 type  2   force =    -0.00011880   -0.00003980   -0.00016218
     atom   15 type  2   force =    -0.00011880    0.00003980   -0.00016218
     atom   16 type  2   force =     0.00011880   -0.00003980    0.00016218

     Total force =     0.000547     Total SCF correction =     0.000001


     Computing stress (Cartesian axis) and pressure

          total   stress  (Ry/bohr**3)                   (kbar)     P=        0.37
   0.00000272   0.00000000  -0.00000081            0.40        0.00       -0.12
   0.00000000   0.00000090   0.00000000            0.00        0.13        0.00
  -0.00000081   0.00000000   0.00000386           -0.12        0.00        0.57


     Writing all to output data dir ./bh3.save/
 
     init_run     :      0.60s CPU      0.74s WALL (       2 calls)
     electrons    :     31.67s CPU     33.51s WALL (      17 calls)
     update_pot   :      1.38s CPU      1.40s WALL (      15 calls)
     forces       :      1.29s CPU      1.32s WALL (      17 calls)
     stress       :      2.19s CPU      2.21s WALL (      17 calls)

     Called by init_run:
     wfcinit      :      0.20s CPU      0.24s WALL (       2 calls)
     potinit      :      0.08s CPU      0.09s WALL (       2 calls)
     hinit0       :      0.11s CPU      0.16s WALL (       2 calls)

     Called by electrons:
     c_bands      :     25.38s CPU     26.54s WALL (     156 calls)
     sum_band     :      4.57s CPU      4.68s WALL (     156 calls)
     v_of_rho     :      0.89s CPU      0.91s WALL (     171 calls)
     newd         :      0.38s CPU      0.40s WALL (     171 calls)
     mix_rho      :      0.18s CPU      0.19s WALL (     156 calls)

     Called by c_bands:
     init_us_2    :      0.41s CPU      0.43s WALL (    4176 calls)
     init_us_2:cp :      0.40s CPU      0.42s WALL (    4176 calls)
     cegterg      :     22.01s CPU     22.57s WALL (    1872 calls)

     Called by *egterg:
     cdiaghg      :      2.09s CPU      2.17s WALL (    6907 calls)
     h_psi        :     18.38s CPU     18.86s WALL (    7135 calls)
     s_psi        :      0.31s CPU      0.31s WALL (    7135 calls)
     g_psi        :      0.07s CPU      0.08s WALL (    5239 calls)

     Called by h_psi:
     h_psi:calbec :      0.61s CPU      0.63s WALL (    7135 calls)
     vloc_psi     :     17.32s CPU     17.76s WALL (    7135 calls)
     add_vuspsi   :      0.35s CPU      0.37s WALL (    7135 calls)

     General routines
     calbec       :      0.86s CPU      0.89s WALL (   10027 calls)
     fft          :      0.61s CPU      0.66s WALL (    2631 calls)
     ffts         :      0.07s CPU      0.08s WALL (     327 calls)
     fftw         :     19.03s CPU     19.51s WALL (  202642 calls)
     interpolate  :      0.07s CPU      0.07s WALL (     171 calls)
 
     Parallel routines
 
     PWSCF        :     37.63s CPU     39.99s WALL

 
   This run was terminated on:  12:21:59   1Dec2023            

=------------------------------------------------------------------------------=
   JOB DONE.
=------------------------------------------------------------------------------=
Job execution finished at: Fri Dec  1 12:21:59 IST 2023
