==========================================
SLURM_CLUSTER_NAME = paramganga
SLURM_ARRAY_JOB_ID = 
SLURM_ARRAY_TASK_ID = 
SLURM_ARRAY_TASK_COUNT = 
SLURM_ARRAY_TASK_MAX = 
SLURM_ARRAY_TASK_MIN = 
SLURM_JOB_ACCOUNT = iitr
SLURM_JOB_ID = 174842
SLURM_JOB_NAME = 19280
SLURM_JOB_NODELIST = cn[214-216]
SLURM_JOB_USER = garima.iitr
SLURM_JOB_UID = 38339
SLURM_JOB_PARTITION = small
SLURM_TASK_PID = 12911
SLURM_SUBMIT_DIR = /home/garima.iitr/.cache/.es/compmat/bh3
SLURM_CPUS_ON_NODE = 48
SLURM_NTASKS = 144
SLURM_TASK_PID = 12911
==========================================
cn214
 
:: initializing oneAPI environment ...
   slurm_script: BASH_VERSION = 4.2.46(2)-release
   args: Using "$@" for setvars.sh arguments: 
:: advisor -- latest
:: ccl -- latest
:: clck -- latest
:: compiler -- latest
:: dal -- latest
:: debugger -- latest
:: dev-utilities -- latest
:: dnnl -- latest
:: dpcpp-ct -- latest
:: dpl -- latest
:: inspector -- latest
:: intelpython -- latest
:: ipp -- latest
:: ippcp -- latest
:: ipp -- latest
:: itac -- latest
:: mkl -- latest
:: mpi -- latest
:: tbb -- latest
:: vpl -- latest
:: vtune -- latest
:: oneAPI environment initialized ::
 
Job execution start: Fri Dec  1 09:19:08 IST 2023
Job submitted by garima.iitr
The job ID is:174842

     Program PWSCF v.7.1 starts on  1Dec2023 at  9:19:11 

     This program is part of the open-source Quantum ESPRESSO suite
     for quantum simulation of materials; please cite
         "P. Giannozzi et al., J. Phys.:Condens. Matter 21 395502 (2009);
         "P. Giannozzi et al., J. Phys.:Condens. Matter 29 465901 (2017);
         "P. Giannozzi et al., J. Chem. Phys. 152 154105 (2020);
          URL http://www.quantum-espresso.org", 
     in publications or presentations arising from this work. More details at
     http://www.quantum-espresso.org/quote

     Parallel version (MPI & OpenMP), running on     144 processor cores
     Number of MPI processes:               144
     Threads/MPI process:                     1

     MPI processes distributed on     3 nodes
     169673 MiB available memory on the printing compute node when the environment starts
 
     Reading input from bh3.in

     Current dimensions of program PWSCF are:
     Max number of different atomic species (ntypx) = 10
     Max number of k-points (npk) =  40000
     Max angular momentum in pseudopotentials (lmaxx) =  4

     IMPORTANT: XC functional enforced from input :
     Exchange-correlation= PBE
                           (   1   4   3   4   0   0   0)
     Any further DFT definition will be discarded
     Please, verify this is what you really want

     Message from routine setup:
     using ibrav=0 with symmetry is DISCOURAGED, use correct ibrav instead
 
     K-points division:     npool     =       4
     R & G space division:  proc/nbgrp/npool/nimage =      36
     Subspace diagonalization in iterative solution of the eigenvalue problem:
     a serial algorithm will be used

 
     Parallelization info
     --------------------
     sticks:   dense  smooth     PW     G-vecs:    dense   smooth      PW
     Min          78      63     17                 3377     2418     355
     Max          80      64     18                 3380     2420     362
     Sum        2821    2273    633               121635    87073   12857
 
     Using Slab Decomposition
 


     bravais-lattice index     =            0
     lattice parameter (alat)  =       8.1081  a.u.
     unit-cell volume          =     992.9145 (a.u.)^3
     number of atoms/cell      =           16
     number of atomic types    =            2
     number of electrons       =        24.00
     number of Kohn-Sham states=           16
     kinetic-energy cutoff     =      75.0000  Ry
     charge density cutoff     =     375.0000  Ry
     scf convergence threshold =      1.0E-08
     mixing beta               =       0.7000
     number of iterations used =            8  plain     mixing
     energy convergence thresh.=      1.0E-04
     force convergence thresh. =      1.0E-03
     Exchange-correlation= PBE
                           (   1   4   3   4   0   0   0)
     nstep                     =           50


     celldm(1)=   8.108059  celldm(2)=   0.000000  celldm(3)=   0.000000
     celldm(4)=   0.000000  celldm(5)=   0.000000  celldm(6)=   0.000000

     crystal axes: (cart. coord. in units of alat)
               a(1) = (   1.000000   0.000000   0.000000 )  
               a(2) = (   0.000000   1.442472   0.000000 )  
               a(3) = (  -0.644894   0.000000   1.291379 )  

     reciprocal axes: (cart. coord. in units 2 pi/alat)
               b(1) = (  1.000000  0.000000  0.499384 )  
               b(2) = (  0.000000  0.693254  0.000000 )  
               b(3) = (  0.000000  0.000000  0.774366 )  


     PseudoPot. # 1 for B  read from file:
     /home/garima.iitr/.cache/.es/compmat/bh3/b_pbe_v1.4.uspp.F.UPF
     MD5 check sum: cc6de2960df11db49a60e589f9ebb39b
     Pseudo is Ultrasoft + core correction, Zval =  3.0
     Generated by new atomic code, or converted to UPF format
     Using radial grid of  781 points,  4 beta functions with: 
                l(1) =   0
                l(2) =   0
                l(3) =   1
                l(4) =   1
     Q(r) pseudized with  8 coefficients,  rinner =    1.100   1.100   1.100


     PseudoPot. # 2 for H  read from file:
     /home/garima.iitr/.cache/.es/compmat/bh3/H.pbe-rrkjus_psl.1.0.0.UPF
     MD5 check sum: 3f4114867bd07edc7f1424d066fc1888
     Pseudo is Ultrasoft, Zval =  1.0
     Generated using &quot;atomic&quot; code by A. Dal Corso  v.6.3MaX
     Using radial grid of  929 points,  2 beta functions with: 
                l(1) =   0
                l(2) =   0
     Q(r) pseudized with 0 coefficients 


     atomic species   valence    mass     pseudopotential
        B              3.00    10.81350     B ( 1.00)
        H              1.00     1.00750     H ( 1.00)

      4 Sym. Ops., with inversion, found ( 2 have fractional translation)



   Cartesian axes

     site n.     atom                  positions (alat units)
         1           B   tau(   1) = (  -0.2732280   0.7844302   0.8324538  )
         2           B   tau(   2) = (   0.6283342   0.6580415   0.4589256  )
         3           B   tau(   3) = (   0.3058873   0.0631944   1.1046154  )
         4           B   tau(   4) = (   0.0492189   1.3792774   0.1867641  )
         5           H   tau(   5) = (  -0.1123443   0.0068599   0.4008051  )
         6           H   tau(   6) = (   0.4674505   1.4356118   0.8905744  )
         7           H   tau(   7) = (   0.7898974   0.7280958   0.2448847  )
         8           H   tau(   8) = (  -0.4347912   0.7143759   1.0464948  )
         9           H   tau(   9) = (   0.1256089   0.1895213   0.0310581  )
        10           H   tau(  10) = (   0.2294973   1.2529504   1.2603213  )
        11           H   tau(  11) = (   0.5519442   0.9107572   0.6146316  )
        12           H   tau(  12) = (  -0.1968380   0.5317145   0.6767478  )
        13           H   tau(  13) = (  -0.0461572   0.9393059   0.8669348  )
        14           H   tau(  14) = (   0.4012634   0.5031658   0.4244446  )
        15           H   tau(  15) = (   0.0788165   0.2180701   1.0701343  )
        16           H   tau(  16) = (   0.2762897   1.2244016   0.2212451  )

     number of k points=    48  Marzari-Vanderbilt smearing, width (Ry)=  0.0050
                       cart. coord. in units 2pi/alat
        k(    1) = (   0.0000000   0.0000000   0.0000000), wk =   0.0133333
        k(    2) = (   0.0000000   0.0000000   0.1548731), wk =   0.0266667
        k(    3) = (   0.0000000   0.0000000   0.3097463), wk =   0.0266667
        k(    4) = (   0.0000000   0.1386509   0.0000000), wk =   0.0266667
        k(    5) = (   0.0000000   0.1386509   0.1548731), wk =   0.0533333
        k(    6) = (   0.0000000   0.1386509   0.3097463), wk =   0.0533333
        k(    7) = (   0.0000000   0.2773018   0.0000000), wk =   0.0266667
        k(    8) = (   0.0000000   0.2773018   0.1548731), wk =   0.0533333
        k(    9) = (   0.0000000   0.2773018   0.3097463), wk =   0.0533333
        k(   10) = (   0.1666667   0.0000000   0.0832306), wk =   0.0266667
        k(   11) = (   0.1666667   0.0000000   0.2381038), wk =   0.0266667
        k(   12) = (   0.1666667   0.0000000   0.3929769), wk =   0.0266667
        k(   13) = (   0.1666667   0.0000000  -0.2265157), wk =   0.0266667
        k(   14) = (   0.1666667   0.0000000  -0.0716425), wk =   0.0266667
        k(   15) = (   0.1666667   0.1386509   0.0832306), wk =   0.0533333
        k(   16) = (   0.1666667   0.1386509   0.2381038), wk =   0.0533333
        k(   17) = (   0.1666667   0.1386509   0.3929769), wk =   0.0533333
        k(   18) = (   0.1666667   0.1386509  -0.2265157), wk =   0.0533333
        k(   19) = (   0.1666667   0.1386509  -0.0716425), wk =   0.0533333
        k(   20) = (   0.1666667   0.2773018   0.0832306), wk =   0.0533333
        k(   21) = (   0.1666667   0.2773018   0.2381038), wk =   0.0533333
        k(   22) = (   0.1666667   0.2773018   0.3929769), wk =   0.0533333
        k(   23) = (   0.1666667   0.2773018  -0.2265157), wk =   0.0533333
        k(   24) = (   0.1666667   0.2773018  -0.0716425), wk =   0.0533333
        k(   25) = (   0.3333333   0.0000000   0.1664612), wk =   0.0266667
        k(   26) = (   0.3333333   0.0000000   0.3213344), wk =   0.0266667
        k(   27) = (   0.3333333   0.0000000   0.4762075), wk =   0.0266667
        k(   28) = (   0.3333333   0.0000000  -0.1432851), wk =   0.0266667
        k(   29) = (   0.3333333   0.0000000   0.0115881), wk =   0.0266667
        k(   30) = (   0.3333333   0.1386509   0.1664612), wk =   0.0533333
        k(   31) = (   0.3333333   0.1386509   0.3213344), wk =   0.0533333
        k(   32) = (   0.3333333   0.1386509   0.4762075), wk =   0.0533333
        k(   33) = (   0.3333333   0.1386509  -0.1432851), wk =   0.0533333
        k(   34) = (   0.3333333   0.1386509   0.0115881), wk =   0.0533333
        k(   35) = (   0.3333333   0.2773018   0.1664612), wk =   0.0533333
        k(   36) = (   0.3333333   0.2773018   0.3213344), wk =   0.0533333
        k(   37) = (   0.3333333   0.2773018   0.4762075), wk =   0.0533333
        k(   38) = (   0.3333333   0.2773018  -0.1432851), wk =   0.0533333
        k(   39) = (   0.3333333   0.2773018   0.0115881), wk =   0.0533333
        k(   40) = (  -0.5000000   0.0000000  -0.2496918), wk =   0.0133333
        k(   41) = (  -0.5000000   0.0000000  -0.0948187), wk =   0.0266667
        k(   42) = (  -0.5000000   0.0000000   0.0600545), wk =   0.0266667
        k(   43) = (  -0.5000000   0.1386509  -0.2496918), wk =   0.0266667
        k(   44) = (  -0.5000000   0.1386509  -0.0948187), wk =   0.0533333
        k(   45) = (  -0.5000000   0.1386509   0.0600545), wk =   0.0533333
        k(   46) = (  -0.5000000   0.2773018  -0.2496918), wk =   0.0266667
        k(   47) = (  -0.5000000   0.2773018  -0.0948187), wk =   0.0533333
        k(   48) = (  -0.5000000   0.2773018   0.0600545), wk =   0.0533333

     Dense  grid:   121635 G-vectors     FFT dimensions: (  50,  80,  80)

     Smooth grid:    87073 G-vectors     FFT dimensions: (  45,  72,  72)

     Estimated max dynamical RAM per process >       5.46 MB

     Estimated total dynamical RAM >     696.63 MB

     Initial potential from superposition of free atoms

     starting charge      23.9988, renormalised to      24.0000
     Starting wfcs are   28 randomized atomic wfcs

     total cpu time spent up to now is        0.7 secs

     Self-consistent Calculation

     iteration #  1     ecut=    75.00 Ry     beta= 0.70
     Davidson diagonalization with overlap
     ethr =  1.00E-02,  avg # of iterations =  3.0

     total cpu time spent up to now is        1.0 secs

     total energy              =     -39.46152845 Ry
     estimated scf accuracy    <       1.11605029 Ry

     iteration #  2     ecut=    75.00 Ry     beta= 0.70
     Davidson diagonalization with overlap
     ethr =  4.65E-03,  avg # of iterations =  2.0

     total cpu time spent up to now is        1.2 secs

     total energy              =     -39.60209908 Ry
     estimated scf accuracy    <       0.07449332 Ry

     iteration #  3     ecut=    75.00 Ry     beta= 0.70
     Davidson diagonalization with overlap
     ethr =  3.10E-04,  avg # of iterations =  2.5

     total cpu time spent up to now is        1.4 secs

     total energy              =     -39.61335900 Ry
     estimated scf accuracy    <       0.00332475 Ry

     iteration #  4     ecut=    75.00 Ry     beta= 0.70
     Davidson diagonalization with overlap
     ethr =  1.39E-05,  avg # of iterations =  5.6

     total cpu time spent up to now is        1.6 secs

     total energy              =     -39.61379417 Ry
     estimated scf accuracy    <       0.00003765 Ry

     iteration #  5     ecut=    75.00 Ry     beta= 0.70
     Davidson diagonalization with overlap
     ethr =  1.57E-07,  avg # of iterations =  2.5

     total cpu time spent up to now is        1.8 secs

     total energy              =     -39.61380955 Ry
     estimated scf accuracy    <       0.00000322 Ry

     iteration #  6     ecut=    75.00 Ry     beta= 0.70
     Davidson diagonalization with overlap
     ethr =  1.34E-08,  avg # of iterations =  2.0

     total cpu time spent up to now is        2.0 secs

     total energy              =     -39.61381028 Ry
     estimated scf accuracy    <       0.00000007 Ry

     iteration #  7     ecut=    75.00 Ry     beta= 0.70
     Davidson diagonalization with overlap
     ethr =  2.91E-10,  avg # of iterations =  2.8

     total cpu time spent up to now is        2.2 secs

     End of self-consistent calculation

          k = 0.0000 0.0000 0.0000 ( 10845 PWs)   bands (ev):

   -12.6184 -12.1657  -7.1633  -6.9808  -6.3231  -6.1098  -5.3614  -5.0122
    -4.8847  -4.7447  -3.6863  -3.3323   2.0310   3.1241   4.6898   4.8090

          k = 0.0000 0.0000 0.1549 ( 10896 PWs)   bands (ev):

   -12.5705 -12.2018  -7.2500  -6.9929  -6.5213  -6.1624  -5.1407  -4.9376
    -4.8321  -4.7177  -3.6134  -3.3253   2.1153   3.0111   4.6748   4.8265

          k = 0.0000 0.0000 0.3097 ( 10899 PWs)   bands (ev):

   -12.4478 -12.3056  -7.3171  -7.1825  -6.5194  -6.3215  -5.0170  -5.0032
    -4.5826  -4.5777  -3.4516  -3.3386   2.3692   2.7239   4.5326   4.7457

          k = 0.0000 0.1387 0.0000 ( 10864 PWs)   bands (ev):

   -12.5775 -12.2112  -7.1147  -6.9700  -6.3908  -6.2383  -5.3201  -4.9936
    -4.7917  -4.7370  -3.6463  -3.3535   2.1032   2.9638   4.7856   4.8066

          k = 0.0000 0.1387 0.1549 ( 10889 PWs)   bands (ev):

   -12.5353 -12.2366  -7.3081  -7.0110  -6.5224  -6.1234  -5.1554  -4.8863
    -4.8355  -4.6748  -3.5933  -3.3512   2.1602   2.8685   4.7484   4.9385

          k = 0.0000 0.1387 0.3097 ( 10900 PWs)   bands (ev):

   -12.4303 -12.3147  -7.4376  -7.3121  -6.3686  -6.1889  -5.0058  -4.9414
    -4.6505  -4.5646  -3.4617  -3.3657   2.3506   2.6315   4.6977   4.8953

          k = 0.0000 0.2773 0.0000 ( 10878 PWs)   bands (ev):

   -12.4680 -12.3281  -7.0003  -6.9427  -6.5089  -6.4556  -5.2072  -5.0674
    -4.6666  -4.6658  -3.5443  -3.4278   2.3094   2.6247   4.8279   5.0102

          k = 0.0000 0.2773 0.1549 ( 10877 PWs)   bands (ev):

   -12.4430 -12.3286  -7.3132  -7.1823  -6.3594  -6.1799  -5.1081  -4.9930
    -4.6913  -4.6280  -3.5260  -3.4271   2.3082   2.5698   4.9561   5.1366

          k = 0.0000 0.2773 0.3097 ( 10892 PWs)   bands (ev):

   -12.3878 -12.3434  -7.5542  -7.5037  -6.1362  -6.0612  -4.9380  -4.8593
    -4.7122  -4.6211  -3.4633  -3.4235   2.3559   2.4600   5.1439   5.2812

          k = 0.1667 0.0000 0.0832 ( 10876 PWs)   bands (ev):

   -12.5510 -12.1598  -7.1109  -6.8925  -6.6185  -6.1582  -5.1665  -5.0513
    -4.8662  -4.8452  -3.7366  -3.4317   1.9812   2.8177   4.5895   4.6078

          k = 0.1667 0.0000 0.2381 ( 10892 PWs)   bands (ev):

   -12.4697 -12.2207  -7.2037  -7.1145  -6.6365  -6.2055  -5.0974  -5.0059
    -4.7547  -4.6020  -3.6776  -3.4586   2.1627   2.6461   4.4839   4.7796

          k = 0.1667 0.0000 0.3930 ( 10890 PWs)   bands (ev):

   -12.3452 -12.3375  -7.3098  -7.1680  -6.4560  -6.3453  -5.1891  -5.1234
    -4.6127  -4.4808  -3.5054  -3.4514   2.4036   2.5298   4.6097   4.7370

          k = 0.1667 0.0000-0.2265 ( 10877 PWs)   bands (ev):

   -12.4670 -12.2312  -7.2795  -6.9935  -6.4296  -6.2963  -5.3613  -5.1238
    -4.7333  -4.5714  -3.5468  -3.3667   2.1701   2.8757   4.7616   4.7990

          k = 0.1667 0.0000-0.0716 ( 10873 PWs)   bands (ev):

   -12.5507 -12.1649  -7.1293  -6.9095  -6.3751  -6.2003  -5.4972  -5.0739
    -4.9111  -4.7068  -3.6804  -3.3611   2.0138   2.9556   4.6049   4.7152

          k = 0.1667 0.1387 0.0832 ( 10885 PWs)   bands (ev):

   -12.5146 -12.1978  -7.1243  -6.9066  -6.6032  -6.1917  -5.2337  -5.0446
    -4.8312  -4.7556  -3.7185  -3.4537   2.0782   2.7694   4.6443   4.7940

          k = 0.1667 0.1387 0.2381 ( 10904 PWs)   bands (ev):

   -12.4439 -12.2419  -7.3004  -7.1995  -6.4892  -6.1608  -5.1502  -4.9641
    -4.7625  -4.5755  -3.6776  -3.4658   2.2109   2.6307   4.5883   4.9605

          k = 0.1667 0.1387 0.3930 ( 10881 PWs)   bands (ev):

   -12.3401 -12.3338  -7.3965  -7.2807  -6.4154  -6.1882  -5.1965  -5.0514
    -4.6319  -4.5007  -3.5196  -3.4366   2.3504   2.5078   4.6008   4.9741

          k = 0.1667 0.1387-0.2265 ( 10880 PWs)   bands (ev):

   -12.4423 -12.2509  -7.3340  -7.0543  -6.5011  -6.1756  -5.3117  -5.0588
    -4.7299  -4.5969  -3.5238  -3.3781   2.1697   2.7289   4.7586   4.8389

          k = 0.1667 0.1387-0.0716 ( 10861 PWs)   bands (ev):

   -12.5146 -12.2023  -7.1092  -6.8981  -6.4518  -6.2929  -5.4265  -5.0219
    -4.8569  -4.7270  -3.6459  -3.3834   2.0701   2.8377   4.5856   4.9293

          k = 0.1667 0.2773 0.0832 ( 10900 PWs)   bands (ev):

   -12.4181 -12.2970  -7.1024  -7.0059  -6.4836  -6.3125  -5.2317  -5.1413
    -4.7147  -4.6732  -3.6438  -3.5299   2.3231   2.5953   4.9284   5.1078

          k = 0.1667 0.2773 0.2381 ( 10893 PWs)   bands (ev):

   -12.3779 -12.3005  -7.3875  -7.3401  -6.2619  -6.1397  -5.1500  -5.0559
    -4.6661  -4.5820  -3.6217  -3.5223   2.3540   2.5313   4.9176   5.2395

          k = 0.1667 0.2773 0.3930 ( 10887 PWs)   bands (ev):

   -12.3309 -12.3285  -7.4919  -7.4505  -6.2471  -6.1203  -5.1093  -5.0059
    -4.6351  -4.5628  -3.5012  -3.4541   2.3306   2.4123   4.8163   5.1578

          k = 0.1667 0.2773-0.2265 ( 10886 PWs)   bands (ev):

   -12.3793 -12.3058  -7.3572  -7.2437  -6.3808  -6.2158  -5.1485  -5.0117
    -4.7122  -4.6488  -3.4694  -3.4137   2.2348   2.4428   4.8343   4.9151

          k = 0.1667 0.2773-0.0716 ( 10883 PWs)   bands (ev):

   -12.4194 -12.2999  -7.0342  -6.9217  -6.5399  -6.4483  -5.2618  -5.0830
    -4.7496  -4.7158  -3.5553  -3.4523   2.2530   2.5489   4.7653   5.0261

          k = 0.3333 0.0000 0.1665 ( 10872 PWs)   bands (ev):

   -12.4058 -12.1478  -7.1678  -7.0007  -6.5757  -6.2207  -5.2928  -5.1070
    -4.8409  -4.6197  -3.9443  -3.7116   2.0205   2.3574   4.4552   4.6899

          k = 0.3333 0.0000 0.3213 ( 10897 PWs)   bands (ev):

   -12.3385 -12.2031  -7.3322  -7.0387  -6.4725  -6.2313  -5.3650  -5.1937
    -4.7150  -4.4853  -3.8758  -3.7004   2.2372   2.2660   4.6621   4.8274

          k = 0.3333 0.0000 0.4762 ( 10921 PWs)   bands (ev):

   -12.2970 -12.2571  -7.2649  -6.9305  -6.4082  -6.3215  -5.5516  -5.3247
    -4.7258  -4.5570  -3.6269  -3.6056   2.1111   2.5157   4.4615   4.6596

          k = 0.3333 0.0000-0.1433 ( 10880 PWs)   bands (ev):

   -12.3858 -12.1878  -7.0473  -6.7765  -6.4757  -6.3856  -5.6639  -5.3529
    -4.8158  -4.6923  -3.6451  -3.4738   2.0211   2.5790   4.2768   4.3659

          k = 0.3333 0.0000 0.0116 ( 10867 PWs)   bands (ev):

   -12.4270 -12.1463  -6.9283  -6.8375  -6.6550  -6.3129  -5.4221  -5.3197
    -4.8091  -4.7909  -3.8020  -3.5525   1.9695   2.4332   4.1782   4.4922

          k = 0.3333 0.1387 0.1665 ( 10887 PWs)   bands (ev):

   -12.3801 -12.1711  -7.1613  -7.0184  -6.5701  -6.2483  -5.3373  -5.1760
    -4.7739  -4.5969  -3.9102  -3.6782   2.1393   2.4063   4.4290   4.8246

          k = 0.3333 0.1387 0.3213 ( 10900 PWs)   bands (ev):

   -12.3230 -12.2132  -7.3170  -7.0903  -6.5038  -6.2323  -5.4062  -5.1688
    -4.6873  -4.4885  -3.8230  -3.6618   2.2295   2.3726   4.4744   4.8929

          k = 0.3333 0.1387 0.4762 ( 10887 PWs)   bands (ev):

   -12.2899 -12.2575  -7.2491  -6.9897  -6.5497  -6.2917  -5.4469  -5.2600
    -4.7257  -4.5820  -3.6031  -3.5885   2.1192   2.4984   4.4039   4.6773

          k = 0.3333 0.1387-0.1433 ( 10882 PWs)   bands (ev):

   -12.3649 -12.2043  -7.0313  -6.8148  -6.5626  -6.4535  -5.5258  -5.2489
    -4.8170  -4.7471  -3.6281  -3.4913   2.0622   2.5484   4.2857   4.5393

          k = 0.3333 0.1387 0.0116 ( 10885 PWs)   bands (ev):

   -12.3995 -12.1720  -6.9188  -6.8402  -6.6809  -6.3751  -5.4434  -5.2182
    -4.8444  -4.7612  -3.7837  -3.5694   2.0709   2.4638   4.3086   4.6256

          k = 0.3333 0.2773 0.1665 ( 10902 PWs)   bands (ev):

   -12.3138 -12.2337  -7.1347  -7.0784  -6.4871  -6.3495  -5.3685  -5.3021
    -4.6681  -4.6014  -3.7849  -3.6774   2.3691   2.4676   4.5448   4.7988

          k = 0.3333 0.2773 0.3213 ( 10898 PWs)   bands (ev):

   -12.2847 -12.2426  -7.2753  -7.1953  -6.4677  -6.3324  -5.3647  -5.2406
    -4.5976  -4.5194  -3.7033  -3.6315   2.3350   2.4244   4.4319   4.6514

          k = 0.3333 0.2773 0.4762 ( 10897 PWs)   bands (ev):

   -12.2744 -12.2619  -7.2090  -7.1179  -6.5674  -6.4246  -5.2531  -5.1776
    -4.7125  -4.6498  -3.5651  -3.5610   2.2129   2.3840   4.4443   4.6043

          k = 0.3333 0.2773-0.1433 ( 10918 PWs)   bands (ev):

   -12.3117 -12.2501  -6.9918  -6.9039  -6.6363  -6.5615  -5.2780  -5.1336
    -4.8538  -4.8267  -3.5861  -3.5350   2.2083   2.4141   4.5024   4.7304

          k = 0.3333 0.2773 0.0116 ( 10902 PWs)   bands (ev):

   -12.3279 -12.2408  -6.9007  -6.8721  -6.6471  -6.5224  -5.3497  -5.2182
    -4.8312  -4.7655  -3.7121  -3.6228   2.2941   2.4568   4.6178   4.8080

          k =-0.5000 0.0000-0.2497 ( 10874 PWs)   bands (ev):

   -12.3271 -12.1417  -7.3830  -6.9493  -6.4262  -6.2237  -5.3974  -5.1422
    -4.8014  -4.5009  -4.0915  -3.8869   2.0956   2.1825   4.5474   5.0553

          k =-0.5000 0.0000-0.0948 ( 10910 PWs)   bands (ev):

   -12.3153 -12.1657  -7.2628  -6.8886  -6.4468  -6.2883  -5.4788  -5.3063
    -4.7806  -4.5935  -3.9348  -3.7524   2.1322   2.1516   4.2404   4.7583

          k =-0.5000 0.0000 0.0601 ( 10883 PWs)   bands (ev):

   -12.2788 -12.2218  -6.9672  -6.7871  -6.5042  -6.4680  -5.5783  -5.5230
    -4.7807  -4.7374  -3.6734  -3.5955   2.1406   2.2006   4.0553   4.2680

          k =-0.5000 0.1387-0.2497 ( 10894 PWs)   bands (ev):

   -12.3079 -12.1577  -7.3199  -6.9487  -6.4716  -6.3248  -5.4530  -5.2232
    -4.7183  -4.4982  -3.9899  -3.8233   2.2190   2.2485   4.3624   4.8663

          k =-0.5000 0.1387-0.0948 ( 10897 PWs)   bands (ev):

   -12.2990 -12.1777  -7.2063  -6.8982  -6.5181  -6.3878  -5.4664  -5.2729
    -4.7702  -4.5946  -3.8780  -3.7241   2.1614   2.2759   4.2105   4.7784

          k =-0.5000 0.1387 0.0601 ( 10903 PWs)   bands (ev):

   -12.2703 -12.2241  -6.9375  -6.8119  -6.6039  -6.5449  -5.4727  -5.3884
    -4.8288  -4.7605  -3.6716  -3.6023   2.1735   2.2661   4.1266   4.4003

          k =-0.5000 0.2773-0.2497 ( 10904 PWs)   bands (ev):

   -12.2590 -12.2015  -7.1569  -6.9967  -6.5368  -6.4966  -5.4816  -5.3827
    -4.5910  -4.5175  -3.8107  -3.7467   2.3846   2.4069   4.2504   4.5084

          k =-0.5000 0.2773-0.0948 ( 10895 PWs)   bands (ev):

   -12.2581 -12.2116  -7.0635  -6.9377  -6.6193  -6.5703  -5.3984  -5.3021
    -4.7086  -4.6323  -3.7587  -3.6977   2.3097   2.3877   4.2819   4.5627

          k =-0.5000 0.2773 0.0601 ( 10910 PWs)   bands (ev):

   -12.2511 -12.2334  -6.8802  -6.8556  -6.7167  -6.6683  -5.2722  -5.2133
    -4.9014  -4.8486  -3.6538  -3.6249   2.2781   2.3299   4.3955   4.5760

     the Fermi energy is     1.1465 ev

!    total energy              =     -39.61381030 Ry
     estimated scf accuracy    <          1.2E-09 Ry
     smearing contrib. (-TS)   =      -0.00000000 Ry
     internal energy E=F+TS    =     -39.61381030 Ry

     The total energy is F=E-TS. E is the sum of the following terms:
     one-electron contribution =     -16.34402499 Ry
     hartree contribution      =      13.57333032 Ry
     xc contribution           =     -20.26299651 Ry
     ewald contribution        =     -16.58011913 Ry

     convergence has been achieved in   7 iterations

     Forces acting on atoms (cartesian axes, Ry/au):

     atom    1 type  1   force =    -0.00131910   -0.00174582   -0.00450804
     atom    2 type  1   force =     0.00131910    0.00174582    0.00450804
     atom    3 type  1   force =     0.00131910   -0.00174582    0.00450804
     atom    4 type  1   force =    -0.00131910    0.00174582   -0.00450804
     atom    5 type  2   force =    -0.00181213    0.00111755    0.00325779
     atom    6 type  2   force =     0.00181213   -0.00111755   -0.00325779
     atom    7 type  2   force =     0.00181213    0.00111755   -0.00325779
     atom    8 type  2   force =    -0.00181213   -0.00111755    0.00325779
     atom    9 type  2   force =     0.00137298    0.00250031    0.00040832
     atom   10 type  2   force =    -0.00137298   -0.00250031   -0.00040832
     atom   11 type  2   force =    -0.00137298    0.00250031   -0.00040832
     atom   12 type  2   force =     0.00137298   -0.00250031    0.00040832
     atom   13 type  2   force =     0.00297903    0.00228801    0.00073818
     atom   14 type  2   force =    -0.00297903   -0.00228801   -0.00073818
     atom   15 type  2   force =    -0.00297903    0.00228801   -0.00073818
     atom   16 type  2   force =     0.00297903   -0.00228801    0.00073818

     Total force =     0.015901     Total SCF correction =     0.000011


     Computing stress (Cartesian axis) and pressure

          total   stress  (Ry/bohr**3)                   (kbar)     P=       13.48
   0.00010198   0.00000000  -0.00001245           15.00        0.00       -1.83
   0.00000000   0.00009418   0.00000000            0.00       13.85        0.00
  -0.00001245   0.00000000   0.00007879           -1.83        0.00       11.59


     BFGS Geometry Optimization
     Energy error            =      0.0E+00 Ry
     Gradient error          =      4.5E-03 Ry/Bohr

     number of scf cycles    =   1
     number of bfgs steps    =   0

     energy             new  =     -39.6138103046 Ry

     new trust radius        =       0.0050110229 bohr
     new conv_thr            =       0.0000000100 Ry


ATOMIC_POSITIONS (crystal)
B             0.1420454652        0.5436604991        0.6441931664
B             0.8579545348        0.4563395009        0.3558068336
B             0.8579545348        0.0436604991        0.8558068336
B             0.1420454652        0.9563395009        0.1441931664
H             0.0877883625        0.0048512426        0.3106808472
H             0.9122116375        0.9951487574        0.6893191528
H             0.9122116375        0.5048512426        0.1893191528
H             0.0877883625        0.4951487574        0.8106808472
H             0.1413132647        0.1316002910        0.0240893269
H             0.8586867353        0.8683997090        0.9759106731
H             0.8586867353        0.6316002910        0.4759106731
H             0.1413132647        0.3683997090        0.5240893269
H             0.3871887810        0.6513736794        0.6713951301
H             0.6128112190        0.3486263206        0.3286048699
H             0.6128112190        0.1513736794        0.8286048699
H             0.3871887810        0.8486263206        0.1713951301



     Writing config-only to output data dir ./bh3.save/
     NEW-OLD atomic charge density approx. for the potential

     total cpu time spent up to now is        2.5 secs

     Self-consistent Calculation

     iteration #  1     ecut=    75.00 Ry     beta= 0.70
     Davidson diagonalization with overlap
     ethr =  1.00E-06,  avg # of iterations =  3.2

     Threshold (ethr) on eigenvalues was too large:
     Diagonalizing with lowered threshold

     Davidson diagonalization with overlap
     ethr =  9.36E-08,  avg # of iterations =  1.8

     total cpu time spent up to now is        2.9 secs

     total energy              =     -39.61395532 Ry
     estimated scf accuracy    <       0.00002437 Ry

     iteration #  2     ecut=    75.00 Ry     beta= 0.70
     Davidson diagonalization with overlap
     ethr =  1.02E-07,  avg # of iterations =  2.0

     total cpu time spent up to now is        3.1 secs

     total energy              =     -39.61395793 Ry
     estimated scf accuracy    <       0.00000060 Ry

     iteration #  3     ecut=    75.00 Ry     beta= 0.70
     Davidson diagonalization with overlap
     ethr =  2.49E-09,  avg # of iterations =  2.1

     total cpu time spent up to now is        3.3 secs

     total energy              =     -39.61395802 Ry
     estimated scf accuracy    <       0.00000003 Ry

     iteration #  4     ecut=    75.00 Ry     beta= 0.70
     Davidson diagonalization with overlap
     ethr =  1.45E-10,  avg # of iterations =  2.0

     total cpu time spent up to now is        3.5 secs

     End of self-consistent calculation

          k = 0.0000 0.0000 0.0000 ( 10845 PWs)   bands (ev):

   -12.6290 -12.1784  -7.1470  -6.9846  -6.3227  -6.1354  -5.3620  -5.0053
    -4.8707  -4.7325  -3.6642  -3.3063   2.0425   3.1355   4.6780   4.8031

          k = 0.0000 0.0000 0.1549 ( 10896 PWs)   bands (ev):

   -12.5813 -12.2144  -7.2340  -6.9880  -6.5313  -6.1882  -5.1387  -4.9232
    -4.8255  -4.7061  -3.5908  -3.2994   2.1261   3.0217   4.6676   4.8109

          k = 0.0000 0.0000 0.3097 ( 10899 PWs)   bands (ev):

   -12.4593 -12.3177  -7.3015  -7.1673  -6.5418  -6.3463  -5.0079  -4.9899
    -4.5764  -4.5703  -3.4273  -3.3131   2.3786   2.7331   4.5217   4.7278

          k = 0.0000 0.1387 0.0000 ( 10864 PWs)   bands (ev):

   -12.5882 -12.2236  -7.0981  -6.9722  -6.3919  -6.2623  -5.3191  -4.9892
    -4.7803  -4.7238  -3.6237  -3.3278   2.1143   2.9744   4.7776   4.7922

          k = 0.0000 0.1387 0.1549 ( 10889 PWs)   bands (ev):

   -12.5463 -12.2490  -7.2973  -6.9993  -6.5393  -6.1431  -5.1508  -4.8780
    -4.8255  -4.6640  -3.5701  -3.3255   2.1707   2.8787   4.7396   4.9204

          k = 0.0000 0.1387 0.3097 ( 10900 PWs)   bands (ev):

   -12.4418 -12.3268  -7.4266  -7.3008  -6.3875  -6.2093  -4.9955  -4.9286
    -4.6443  -4.5575  -3.4372  -3.3403   2.3602   2.6410   4.6863   4.8778

          k = 0.0000 0.2773 0.0000 ( 10878 PWs)   bands (ev):

   -12.4791 -12.3399  -6.9841  -6.9363  -6.5188  -6.4767  -5.2044  -5.0641
    -4.6567  -4.6543  -3.5204  -3.4027   2.3195   2.6345   4.8149   4.9864

          k = 0.0000 0.2773 0.1549 ( 10877 PWs)   bands (ev):

   -12.4543 -12.3405  -7.3052  -7.1734  -6.3740  -6.1950  -5.1021  -4.9865
    -4.6816  -4.6183  -3.5017  -3.4019   2.3183   2.5797   4.9420   5.1124

          k = 0.0000 0.2773 0.3097 ( 10892 PWs)   bands (ev):

   -12.3996 -12.3553  -7.5461  -7.4954  -6.1530  -6.0786  -4.9268  -4.8452
    -4.7074  -4.6141  -3.4385  -3.3984   2.3658   2.4698   5.1301   5.2646

          k = 0.1667 0.0000 0.0832 ( 10876 PWs)   bands (ev):

   -12.5618 -12.1725  -7.0941  -6.8882  -6.6279  -6.1835  -5.1634  -5.0390
    -4.8584  -4.8342  -3.7148  -3.4073   1.9905   2.8278   4.5787   4.5905

          k = 0.1667 0.0000 0.2381 ( 10892 PWs)   bands (ev):

   -12.4810 -12.2332  -7.1874  -7.0988  -6.6590  -6.2312  -5.0841  -4.9942
    -4.7502  -4.5950  -3.6549  -3.4349   2.1709   2.6557   4.4727   4.7637

          k = 0.1667 0.0000 0.3930 ( 10890 PWs)   bands (ev):

   -12.3571 -12.3494  -7.2951  -7.1531  -6.4790  -6.3685  -5.1788  -5.1104
    -4.6072  -4.4733  -3.4807  -3.4276   2.4132   2.5380   4.5924   4.7250

          k = 0.1667 0.0000-0.2265 ( 10877 PWs)   bands (ev):

   -12.4782 -12.2436  -7.2644  -6.9844  -6.4451  -6.3200  -5.3552  -5.1112
    -4.7266  -4.5623  -3.5232  -3.3406   2.1808   2.8856   4.7485   4.7742

          k = 0.1667 0.0000-0.0716 ( 10873 PWs)   bands (ev):

   -12.5615 -12.1775  -7.1132  -6.9118  -6.3773  -6.2243  -5.4944  -5.0628
    -4.9032  -4.6967  -3.6578  -3.3353   2.0245   2.9664   4.5852   4.7020

          k = 0.1667 0.1387 0.0832 ( 10885 PWs)   bands (ev):

   -12.5256 -12.2103  -7.1119  -6.8949  -6.6184  -6.2131  -5.2275  -5.0358
    -4.8235  -4.7456  -3.6963  -3.4296   2.0877   2.7801   4.6294   4.7790

          k = 0.1667 0.1387 0.2381 ( 10904 PWs)   bands (ev):

   -12.4553 -12.2543  -7.2895  -7.1867  -6.5071  -6.1827  -5.1388  -4.9501
    -4.7586  -4.5684  -3.6547  -3.4424   2.2196   2.6409   4.5748   4.9448

          k = 0.1667 0.1387 0.3930 ( 10881 PWs)   bands (ev):

   -12.3520 -12.3458  -7.3856  -7.2682  -6.4364  -6.2072  -5.1863  -5.0377
    -4.6270  -4.4932  -3.4951  -3.4125   2.3598   2.5165   4.5853   4.9585

          k = 0.1667 0.1387-0.2265 ( 10880 PWs)   bands (ev):

   -12.4536 -12.2632  -7.3229  -7.0421  -6.5215  -6.1927  -5.3045  -5.0474
    -4.7241  -4.5878  -3.4998  -3.3521   2.1798   2.7382   4.7380   4.8215

          k = 0.1667 0.1387-0.0716 ( 10861 PWs)   bands (ev):

   -12.5256 -12.2147  -7.0955  -6.8951  -6.4597  -6.3119  -5.4229  -5.0139
    -4.8498  -4.7161  -3.6228  -3.3578   2.0804   2.8481   4.5653   4.9159

          k = 0.1667 0.2773 0.0832 ( 10900 PWs)   bands (ev):

   -12.4296 -12.3090  -7.0931  -6.9954  -6.4981  -6.3281  -5.2252  -5.1345
    -4.7064  -4.6644  -3.6208  -3.5063   2.3331   2.6061   4.9106   5.0878

          k = 0.1667 0.2773 0.2381 ( 10893 PWs)   bands (ev):

   -12.3896 -12.3125  -7.3792  -7.3309  -6.2780  -6.1572  -5.1390  -5.0442
    -4.6594  -4.5747  -3.5987  -3.4992   2.3639   2.5420   4.9005   5.2203

          k = 0.1667 0.2773 0.3930 ( 10887 PWs)   bands (ev):

   -12.3429 -12.3405  -7.4835  -7.4415  -6.2639  -6.1369  -5.0986  -4.9932
    -4.6298  -4.5557  -3.4769  -3.4298   2.3400   2.4215   4.8012   5.1393

          k = 0.1667 0.2773-0.2265 ( 10886 PWs)   bands (ev):

   -12.3909 -12.3179  -7.3489  -7.2349  -6.3957  -6.2298  -5.1409  -5.0026
    -4.7061  -4.6407  -3.4446  -3.3881   2.2440   2.4515   4.8127   4.8980

          k = 0.1667 0.2773-0.0716 ( 10883 PWs)   bands (ev):

   -12.4307 -12.3118  -7.0232  -6.9104  -6.5558  -6.4624  -5.2573  -5.0778
    -4.7420  -4.7061  -3.5313  -3.4273   2.2624   2.5585   4.7439   5.0083

          k = 0.3333 0.0000 0.1665 ( 10872 PWs)   bands (ev):

   -12.4173 -12.1605  -7.1584  -6.9838  -6.5916  -6.2449  -5.2809  -5.0939
    -4.8374  -4.6130  -3.9237  -3.6898   2.0281   2.3662   4.4407   4.6769

          k = 0.3333 0.0000 0.3213 ( 10897 PWs)   bands (ev):

   -12.3504 -12.2156  -7.3219  -7.0231  -6.4901  -6.2554  -5.3528  -5.1815
    -4.7096  -4.4785  -3.8542  -3.6786   2.2448   2.2750   4.6513   4.8106

          k = 0.3333 0.0000 0.4762 ( 10921 PWs)   bands (ev):

   -12.3090 -12.2693  -7.2532  -6.9179  -6.4265  -6.3422  -5.5413  -5.3148
    -4.7188  -4.5493  -3.6031  -3.5822   2.1202   2.5246   4.4454   4.6366

          k = 0.3333 0.0000-0.1433 ( 10880 PWs)   bands (ev):

   -12.3973 -12.2003  -7.0328  -6.7697  -6.4881  -6.4051  -5.6569  -5.3447
    -4.8087  -4.6842  -3.6214  -3.4488   2.0303   2.5886   4.2541   4.3457

          k = 0.3333 0.0000 0.0116 ( 10867 PWs)   bands (ev):

   -12.4384 -12.1590  -6.9108  -6.8249  -6.6730  -6.3356  -5.4146  -5.3104
    -4.8022  -4.7834  -3.7800  -3.5288   1.9778   2.4421   4.1599   4.4753

          k = 0.3333 0.1387 0.1665 ( 10887 PWs)   bands (ev):

   -12.3918 -12.1837  -7.1522  -7.0020  -6.5869  -6.2701  -5.3265  -5.1636
    -4.7690  -4.5900  -3.8895  -3.6571   2.1477   2.4157   4.4140   4.8097

          k = 0.3333 0.1387 0.3213 ( 10900 PWs)   bands (ev):

   -12.3349 -12.2256  -7.3070  -7.0753  -6.5236  -6.2519  -5.3951  -5.1562
    -4.6820  -4.4816  -3.8015  -3.6403   2.2382   2.3812   4.4602   4.8768

          k = 0.3333 0.1387 0.4762 ( 10887 PWs)   bands (ev):

   -12.3018 -12.2697  -7.2380  -6.9761  -6.5701  -6.3069  -5.4390  -5.2505
    -4.7194  -4.5746  -3.5793  -3.5651   2.1280   2.5077   4.3866   4.6578

          k = 0.3333 0.1387-0.1433 ( 10882 PWs)   bands (ev):

   -12.3764 -12.2167  -7.0177  -6.8053  -6.5792  -6.4670  -5.5200  -5.2425
    -4.8108  -4.7390  -3.6042  -3.4664   2.0711   2.5583   4.2642   4.5214

          k = 0.3333 0.1387 0.0116 ( 10885 PWs)   bands (ev):

   -12.4109 -12.1845  -6.9026  -6.8246  -6.7009  -6.3956  -5.4357  -5.2104
    -4.8392  -4.7530  -3.7615  -3.5461   2.0797   2.4734   4.2903   4.6086

          k = 0.3333 0.2773 0.1665 ( 10902 PWs)   bands (ev):

   -12.3257 -12.2460  -7.1252  -7.0659  -6.5031  -6.3670  -5.3583  -5.2912
    -4.6616  -4.5944  -3.7645  -3.6569   2.3792   2.4781   4.5277   4.7806

          k = 0.3333 0.2773 0.3213 ( 10898 PWs)   bands (ev):

   -12.2968 -12.2549  -7.2654  -7.1831  -6.4854  -6.3485  -5.3544  -5.2294
    -4.5914  -4.5125  -3.6821  -3.6104   2.3446   2.4338   4.4154   4.6352

          k = 0.3333 0.2773 0.4762 ( 10897 PWs)   bands (ev):

   -12.2864 -12.2741  -7.1991  -7.1067  -6.5828  -6.4369  -5.2468  -5.1695
    -4.7065  -4.6431  -3.5414  -3.5375   2.2217   2.3933   4.4272   4.5879

          k = 0.3333 0.2773-0.1433 ( 10918 PWs)   bands (ev):

   -12.3235 -12.2622  -6.9811  -6.8923  -6.6520  -6.5718  -5.2727  -5.1283
    -4.8484  -4.8197  -3.5619  -3.5104   2.2174   2.4239   4.4836   4.7151

          k = 0.3333 0.2773 0.0116 ( 10902 PWs)   bands (ev):

   -12.3396 -12.2529  -6.8871  -6.8587  -6.6630  -6.5387  -5.3435  -5.2118
    -4.8252  -4.7582  -3.6897  -3.6001   2.3040   2.4672   4.5999   4.7910

          k =-0.5000 0.0000-0.2497 ( 10874 PWs)   bands (ev):

   -12.3390 -12.1544  -7.3753  -6.9334  -6.4409  -6.2465  -5.3858  -5.1290
    -4.7968  -4.4944  -4.0717  -3.8664   2.1029   2.1911   4.5372   5.0394

          k =-0.5000 0.0000-0.0948 ( 10910 PWs)   bands (ev):

   -12.3272 -12.1782  -7.2550  -6.8729  -6.4609  -6.3100  -5.4687  -5.2959
    -4.7743  -4.5867  -3.9138  -3.7305   2.1406   2.1596   4.2260   4.7408

          k =-0.5000 0.0000 0.0601 ( 10883 PWs)   bands (ev):

   -12.2907 -12.2340  -6.9573  -6.7693  -6.5187  -6.4898  -5.5709  -5.5154
    -4.7737  -4.7303  -3.6499  -3.5716   2.1491   2.2092   4.0356   4.2465

          k =-0.5000 0.1387-0.2497 ( 10894 PWs)   bands (ev):

   -12.3199 -12.1703  -7.3113  -6.9318  -6.4867  -6.3477  -5.4422  -5.2104
    -4.7127  -4.4916  -3.9705  -3.8035   2.2273   2.2573   4.3497   4.8511

          k =-0.5000 0.1387-0.0948 ( 10897 PWs)   bands (ev):

   -12.3110 -12.1901  -7.1977  -6.8822  -6.5310  -6.4089  -5.4577  -5.2630
    -4.7643  -4.5877  -3.8571  -3.7026   2.1701   2.2847   4.1955   4.7614

          k =-0.5000 0.1387 0.0601 ( 10903 PWs)   bands (ev):

   -12.2823 -12.2363  -6.9263  -6.7958  -6.6166  -6.5644  -5.4671  -5.3824
    -4.8224  -4.7535  -3.6481  -3.5785   2.1823   2.2753   4.1080   4.3807

          k =-0.5000 0.2773-0.2497 ( 10904 PWs)   bands (ev):

   -12.2712 -12.2139  -7.1448  -6.9792  -6.5544  -6.5192  -5.4708  -5.3710
    -4.5844  -4.5107  -3.7918  -3.7277   2.3941   2.4168   4.2344   4.4920

          k =-0.5000 0.2773-0.0948 ( 10895 PWs)   bands (ev):

   -12.2702 -12.2239  -7.0509  -6.9203  -6.6346  -6.5909  -5.3908  -5.2936
    -4.7023  -4.6255  -3.7381  -3.6769   2.3193   2.3976   4.2659   4.5461

          k =-0.5000 0.2773 0.0601 ( 10910 PWs)   bands (ev):

   -12.2632 -12.2455  -6.8633  -6.8417  -6.7332  -6.6839  -5.2681  -5.2083
    -4.8957  -4.8422  -3.6304  -3.6014   2.2879   2.3400   4.3789   4.5605

     the Fermi energy is     1.1313 ev

!    total energy              =     -39.61395803 Ry
     estimated scf accuracy    <          1.4E-09 Ry
     smearing contrib. (-TS)   =      -0.00000000 Ry
     internal energy E=F+TS    =     -39.61395803 Ry

     The total energy is F=E-TS. E is the sum of the following terms:
     one-electron contribution =     -16.30827566 Ry
     hartree contribution      =      13.55268043 Ry
     xc contribution           =     -20.25340464 Ry
     ewald contribution        =     -16.60495816 Ry

     convergence has been achieved in   4 iterations

     Forces acting on atoms (cartesian axes, Ry/au):

     atom    1 type  1   force =     0.00020256    0.00013173    0.00069361
     atom    2 type  1   force =    -0.00020256   -0.00013173   -0.00069361
     atom    3 type  1   force =    -0.00020256    0.00013173   -0.00069361
     atom    4 type  1   force =     0.00020256   -0.00013173    0.00069361
     atom    5 type  2   force =    -0.00025527    0.00047853    0.00090912
     atom    6 type  2   force =     0.00025527   -0.00047853   -0.00090912
     atom    7 type  2   force =     0.00025527    0.00047853   -0.00090912
     atom    8 type  2   force =    -0.00025527   -0.00047853    0.00090912
     atom    9 type  2   force =     0.00119652    0.00220030    0.00034106
     atom   10 type  2   force =    -0.00119652   -0.00220030   -0.00034106
     atom   11 type  2   force =    -0.00119652    0.00220030   -0.00034106
     atom   12 type  2   force =     0.00119652   -0.00220030    0.00034106
     atom   13 type  2   force =     0.00053212    0.00057669    0.00019021
     atom   14 type  2   force =    -0.00053212   -0.00057669   -0.00019021
     atom   15 type  2   force =    -0.00053212    0.00057669   -0.00019021
     atom   16 type  2   force =     0.00053212   -0.00057669    0.00019021

     Total force =     0.005900     Total SCF correction =     0.000027


     Computing stress (Cartesian axis) and pressure

          total   stress  (Ry/bohr**3)                   (kbar)     P=       11.55
   0.00007608   0.00000000  -0.00000078           11.19        0.00       -0.11
   0.00000000   0.00008381   0.00000000            0.00       12.33        0.00
  -0.00000078   0.00000000   0.00007574           -0.11        0.00       11.14

     Energy error            =      1.5E-04 Ry
     Gradient error          =      2.2E-03 Ry/Bohr

     number of scf cycles    =   2
     number of bfgs steps    =   1

     energy             old  =     -39.6138103046 Ry
     energy             new  =     -39.6139580285 Ry

     CASE: energy            _new < energy            _old

     new trust radius        =       0.0034959184 bohr
     new conv_thr            =       0.0000000001 Ry


ATOMIC_POSITIONS (crystal)
B             0.1420573301        0.5436504627        0.6442048250
B             0.8579426699        0.4563495373        0.3557951750
B             0.8579426699        0.0436504627        0.8557951750
B             0.1420573301        0.9563495373        0.1442048250
H             0.0878142372        0.0049155578        0.3108344531
H             0.9121857628        0.9950844422        0.6891655469
H             0.9121857628        0.5049155578        0.1891655469
H             0.0878142372        0.4950844422        0.8108344531
H             0.1415467798        0.1318603748        0.0241346712
H             0.8584532202        0.8681396252        0.9758653288
H             0.8584532202        0.6318603748        0.4758653288
H             0.1415467798        0.3681396252        0.5241346712
H             0.3873470557        0.6514639038        0.6714281213
H             0.6126529443        0.3485360962        0.3285718787
H             0.6126529443        0.1514639038        0.8285718787
H             0.3873470557        0.8485360962        0.1714281213



     Writing config-only to output data dir ./bh3.save/
     NEW-OLD atomic charge density approx. for the potential

     total cpu time spent up to now is        3.8 secs

     Self-consistent Calculation

     iteration #  1     ecut=    75.00 Ry     beta= 0.70
     Davidson diagonalization with overlap
     ethr =  1.00E-06,  avg # of iterations =  2.0

     Threshold (ethr) on eigenvalues was too large:
     Diagonalizing with lowered threshold

     Davidson diagonalization with overlap
     ethr =  2.86E-08,  avg # of iterations =  1.0

     total cpu time spent up to now is        4.1 secs

     total energy              =     -39.61399122 Ry
     estimated scf accuracy    <       0.00000785 Ry

     iteration #  2     ecut=    75.00 Ry     beta= 0.70
     Davidson diagonalization with overlap
     ethr =  3.27E-08,  avg # of iterations =  2.0

     total cpu time spent up to now is        4.3 secs

     total energy              =     -39.61399305 Ry
     estimated scf accuracy    <       0.00000091 Ry

     iteration #  3     ecut=    75.00 Ry     beta= 0.70
     Davidson diagonalization with overlap
     ethr =  3.78E-09,  avg # of iterations =  2.0

     total cpu time spent up to now is        4.5 secs

     total energy              =     -39.61399320 Ry
     estimated scf accuracy    <       0.00000002 Ry

     iteration #  4     ecut=    75.00 Ry     beta= 0.70
     Davidson diagonalization with overlap
     ethr =  7.91E-11,  avg # of iterations =  2.0

     total cpu time spent up to now is        4.7 secs

     total energy              =     -39.61399320 Ry
     estimated scf accuracy    <          1.9E-09 Ry

     iteration #  5     ecut=    75.00 Ry     beta= 0.70
     Davidson diagonalization with overlap
     ethr =  8.01E-12,  avg # of iterations =  1.7

     total cpu time spent up to now is        4.9 secs

     End of self-consistent calculation

          k = 0.0000 0.0000 0.0000 ( 10845 PWs)   bands (ev):

   -12.6180 -12.1654  -7.1425  -6.9818  -6.3179  -6.1313  -5.3547  -5.0007
    -4.8653  -4.7260  -3.6605  -3.3018   2.0438   3.1365   4.6718   4.7955

          k = 0.0000 0.0000 0.1549 ( 10896 PWs)   bands (ev):

   -12.5701 -12.2016  -7.2297  -6.9843  -6.5277  -6.1843  -5.1314  -4.9179
    -4.8201  -4.6995  -3.5868  -3.2948   2.1274   3.0227   4.6600   4.8034

          k = 0.0000 0.0000 0.3097 ( 10899 PWs)   bands (ev):

   -12.4476 -12.3054  -7.2972  -7.1627  -6.5392  -6.3432  -5.0016  -4.9843
    -4.5697  -4.5633  -3.4229  -3.3084   2.3797   2.7342   4.5139   4.7189

          k = 0.0000 0.1387 0.0000 ( 10864 PWs)   bands (ev):

   -12.5771 -12.2109  -7.0935  -6.9691  -6.3874  -6.2585  -5.3121  -4.9834
    -4.7745  -4.7181  -3.6199  -3.3233   2.1155   2.9751   4.7695   4.7850

          k = 0.0000 0.1387 0.1549 ( 10889 PWs)   bands (ev):

   -12.5350 -12.2364  -7.2937  -6.9948  -6.5363  -6.1387  -5.1439  -4.8720
    -4.8195  -4.6581  -3.5662  -3.3210   2.1718   2.8795   4.7318   4.9117

          k = 0.0000 0.1387 0.3097 ( 10900 PWs)   bands (ev):

   -12.4300 -12.3145  -7.4232  -7.2969  -6.3840  -6.2053  -4.9893  -4.9229
    -4.6373  -4.5507  -3.4329  -3.3357   2.3612   2.6418   4.6786   4.8688

          k = 0.0000 0.2773 0.0000 ( 10878 PWs)   bands (ev):

   -12.4676 -12.3277  -6.9793  -6.9322  -6.5151  -6.4734  -5.1976  -5.0573
    -4.6507  -4.6488  -3.5164  -3.3984   2.3204   2.6351   4.8060   4.9749

          k = 0.0000 0.2773 0.1549 ( 10877 PWs)   bands (ev):

   -12.4426 -12.3283  -7.3019  -7.1696  -6.3701  -6.1904  -5.0954  -4.9799
    -4.6755  -4.6123  -3.4978  -3.3977   2.3191   2.5803   4.9328   5.1005

          k = 0.0000 0.2773 0.3097 ( 10892 PWs)   bands (ev):

   -12.3876 -12.3431  -7.5433  -7.4924  -6.1484  -6.0738  -4.9207  -4.8396
    -4.7003  -4.6073  -3.4344  -3.3941   2.3665   2.4705   5.1218   5.2546

          k = 0.1667 0.0000 0.0832 ( 10876 PWs)   bands (ev):

   -12.5506 -12.1595  -7.0895  -6.8845  -6.6241  -6.1796  -5.1564  -5.0340
    -4.8534  -4.8279  -3.7110  -3.4029   1.9912   2.8283   4.5704   4.5817

          k = 0.1667 0.0000 0.2381 ( 10892 PWs)   bands (ev):

   -12.4694 -12.2205  -7.1830  -7.0941  -6.6566  -6.2276  -5.0787  -4.9885
    -4.7430  -4.5889  -3.6509  -3.4305   2.1715   2.6565   4.4645   4.7543

          k = 0.1667 0.0000 0.3930 ( 10890 PWs)   bands (ev):

   -12.3450 -12.3373  -7.2909  -7.1486  -6.4759  -6.3655  -5.1728  -5.1053
    -4.6003  -4.4663  -3.4764  -3.4231   2.4143   2.5389   4.5835   4.7165

          k = 0.1667 0.0000-0.2265 ( 10877 PWs)   bands (ev):

   -12.4667 -12.2309  -7.2603  -6.9802  -6.4419  -6.3163  -5.3487  -5.1064
    -4.7205  -4.5554  -3.5192  -3.3360   2.1821   2.8867   4.7399   4.7640

          k = 0.1667 0.0000-0.0716 ( 10873 PWs)   bands (ev):

   -12.5503 -12.1646  -7.1087  -6.9087  -6.3727  -6.2203  -5.4879  -5.0581
    -4.8978  -4.6900  -3.6541  -3.3308   2.0256   2.9672   4.5765   4.6935

          k = 0.1667 0.1387 0.0832 ( 10885 PWs)   bands (ev):

   -12.5142 -12.1975  -7.1078  -6.8904  -6.6151  -6.2090  -5.2211  -5.0300
    -4.8172  -4.7403  -3.6925  -3.4253   2.0884   2.7808   4.6200   4.7706

          k = 0.1667 0.1387 0.2381 ( 10904 PWs)   bands (ev):

   -12.4436 -12.2417  -7.2859  -7.1825  -6.5037  -6.1785  -5.1332  -4.9445
    -4.7515  -4.5621  -3.6509  -3.4380   2.2201   2.6418   4.5664   4.9348

          k = 0.1667 0.1387 0.3930 ( 10881 PWs)   bands (ev):

   -12.3398 -12.3336  -7.3821  -7.2643  -6.4331  -6.2030  -5.1806  -5.0325
    -4.6200  -4.4862  -3.4910  -3.4079   2.3605   2.5173   4.5764   4.9494

          k = 0.1667 0.1387-0.2265 ( 10880 PWs)   bands (ev):

   -12.4419 -12.2506  -7.3194  -7.0377  -6.5186  -6.1881  -5.2983  -5.0423
    -4.7176  -4.5811  -3.4958  -3.3475   2.1808   2.7390   4.7285   4.8114

          k = 0.1667 0.1387-0.0716 ( 10861 PWs)   bands (ev):

   -12.5142 -12.2019  -7.0913  -6.8914  -6.4558  -6.3078  -5.4166  -5.0086
    -4.8438  -4.7100  -3.6191  -3.3533   2.0812   2.8488   4.5558   4.9070

          k = 0.1667 0.2773 0.0832 ( 10900 PWs)   bands (ev):

   -12.4178 -12.2967  -7.0893  -6.9912  -6.4944  -6.3240  -5.2190  -5.1283
    -4.7004  -4.6586  -3.6171  -3.5023   2.3339   2.6069   4.9001   5.0765

          k = 0.1667 0.2773 0.2381 ( 10893 PWs)   bands (ev):

   -12.3776 -12.3002  -7.3761  -7.3275  -6.2737  -6.1526  -5.1333  -5.0384
    -4.6528  -4.5682  -3.5949  -3.4950   2.3645   2.5428   4.8912   5.2079

          k = 0.1667 0.2773 0.3930 ( 10887 PWs)   bands (ev):

   -12.3307 -12.3283  -7.4806  -7.4384  -6.2597  -6.1321  -5.0931  -4.9879
    -4.6226  -4.5486  -3.4727  -3.4254   2.3404   2.4221   4.7919   5.1277

          k = 0.1667 0.2773-0.2265 ( 10886 PWs)   bands (ev):

   -12.3789 -12.3055  -7.3458  -7.2314  -6.3918  -6.2252  -5.1350  -4.9970
    -4.6993  -4.6341  -3.4404  -3.3836   2.2446   2.4520   4.8020   4.8870

          k = 0.1667 0.2773-0.0716 ( 10883 PWs)   bands (ev):

   -12.4190 -12.2995  -7.0191  -6.9059  -6.5526  -6.4586  -5.2510  -5.0714
    -4.7359  -4.7005  -3.5273  -3.4230   2.2631   2.5591   4.7331   4.9967

          k = 0.3333 0.0000 0.1665 ( 10872 PWs)   bands (ev):

   -12.4054 -12.1476  -7.1545  -6.9790  -6.5882  -6.2409  -5.2763  -5.0885
    -4.8306  -4.6069  -3.9203  -3.6862   2.0281   2.3665   4.4308   4.6681

          k = 0.3333 0.0000 0.3213 ( 10897 PWs)   bands (ev):

   -12.3382 -12.2029  -7.3184  -7.0185  -6.4864  -6.2515  -5.3478  -5.1765
    -4.7030  -4.4717  -3.8508  -3.6748   2.2449   2.2756   4.6420   4.8008

          k = 0.3333 0.0000 0.4762 ( 10921 PWs)   bands (ev):

   -12.2968 -12.2568  -7.2496  -6.9133  -6.4225  -6.3385  -5.5362  -5.3102
    -4.7127  -4.5425  -3.5990  -3.5782   2.1210   2.5253   4.4361   4.6263

          k = 0.3333 0.0000-0.1433 ( 10880 PWs)   bands (ev):

   -12.3855 -12.1875  -7.0284  -6.7655  -6.4841  -6.4012  -5.6519  -5.3404
    -4.8028  -4.6776  -3.6176  -3.4443   2.0310   2.5891   4.2445   4.3364

          k = 0.3333 0.0000 0.0116 ( 10867 PWs)   bands (ev):

   -12.4266 -12.1460  -6.9059  -6.8203  -6.6700  -6.3317  -5.4091  -5.3061
    -4.7966  -4.7768  -3.7764  -3.5246   1.9780   2.4421   4.1501   4.4664

          k = 0.3333 0.1387 0.1665 ( 10887 PWs)   bands (ev):

   -12.3798 -12.1708  -7.1484  -6.9975  -6.5835  -6.2659  -5.3217  -5.1582
    -4.7623  -4.5838  -3.8862  -3.6532   2.1479   2.4161   4.4044   4.7997

          k = 0.3333 0.1387 0.3213 ( 10900 PWs)   bands (ev):

   -12.3227 -12.2130  -7.3035  -7.0709  -6.5202  -6.2475  -5.3903  -5.1512
    -4.6752  -4.4748  -3.7980  -3.6363   2.2386   2.3818   4.4509   4.8662

          k = 0.3333 0.1387 0.4762 ( 10887 PWs)   bands (ev):

   -12.2896 -12.2572  -7.2344  -6.9716  -6.5672  -6.3024  -5.4339  -5.2459
    -4.7130  -4.5678  -3.5751  -3.5609   2.1286   2.5084   4.3772   4.6473

          k = 0.3333 0.1387-0.1433 ( 10882 PWs)   bands (ev):

   -12.3645 -12.2039  -7.0134  -6.8009  -6.5760  -6.4629  -5.5148  -5.2377
    -4.8047  -4.7325  -3.6004  -3.4620   2.0717   2.5590   4.2544   4.5118

          k = 0.3333 0.1387 0.0116 ( 10885 PWs)   bands (ev):

   -12.3991 -12.1717  -6.8977  -6.8197  -6.6981  -6.3918  -5.4304  -5.2054
    -4.8326  -4.7473  -3.7580  -3.5419   2.0801   2.4737   4.2805   4.5991

          k = 0.3333 0.2773 0.1665 ( 10902 PWs)   bands (ev):

   -12.3135 -12.2334  -7.1214  -7.0619  -6.4994  -6.3629  -5.3533  -5.2860
    -4.6551  -4.5880  -3.7609  -3.6528   2.3799   2.4788   4.5177   4.7697

          k = 0.3333 0.2773 0.3213 ( 10898 PWs)   bands (ev):

   -12.2844 -12.2424  -7.2619  -7.1794  -6.4818  -6.3444  -5.3495  -5.2244
    -4.5845  -4.5056  -3.6781  -3.6061   2.3451   2.4344   4.4055   4.6249

          k = 0.3333 0.2773 0.4762 ( 10897 PWs)   bands (ev):

   -12.2740 -12.2616  -7.1955  -7.1029  -6.5795  -6.4328  -5.2415  -5.1645
    -4.6998  -4.6362  -3.5371  -3.5331   2.2221   2.3938   4.4174   4.5775

          k = 0.3333 0.2773-0.1433 ( 10918 PWs)   bands (ev):

   -12.3113 -12.2497  -6.9771  -6.8879  -6.6490  -6.5680  -5.2672  -5.1229
    -4.8419  -4.8137  -3.5579  -3.5062   2.2180   2.4247   4.4734   4.7045

          k = 0.3333 0.2773 0.0116 ( 10902 PWs)   bands (ev):

   -12.3275 -12.2404  -6.8826  -6.8542  -6.6599  -6.5352  -5.3379  -5.2063
    -4.8191  -4.7523  -3.6860  -3.5961   2.3048   2.4680   4.5896   4.7801

          k =-0.5000 0.0000-0.2497 ( 10874 PWs)   bands (ev):

   -12.3267 -12.1415  -7.3722  -6.9287  -6.4367  -6.2421  -5.3813  -5.1239
    -4.7904  -4.4877  -4.0689  -3.8633   2.1026   2.1914   4.5278   5.0287

          k =-0.5000 0.0000-0.0948 ( 10910 PWs)   bands (ev):

   -12.3150 -12.1654  -7.2517  -6.8681  -6.4567  -6.3058  -5.4644  -5.2910
    -4.7680  -4.5803  -3.9105  -3.7269   2.1408   2.1596   4.2166   4.7311

          k =-0.5000 0.0000 0.0601 ( 10883 PWs)   bands (ev):

   -12.2784 -12.2215  -6.9532  -6.7642  -6.5147  -6.4862  -5.5668  -5.5110
    -4.7674  -4.7240  -3.6459  -3.5674   2.1493   2.2095   4.0261   4.2373

          k =-0.5000 0.1387-0.2497 ( 10894 PWs)   bands (ev):

   -12.3076 -12.1575  -7.3080  -6.9271  -6.4828  -6.3438  -5.4377  -5.2054
    -4.7061  -4.4848  -3.9673  -3.8000   2.2274   2.2577   4.3404   4.8408

          k =-0.5000 0.1387-0.0948 ( 10897 PWs)   bands (ev):

   -12.2986 -12.1774  -7.1942  -6.8774  -6.5272  -6.4052  -5.4531  -5.2581
    -4.7579  -4.5812  -3.8536  -3.6988   2.1703   2.2850   4.1862   4.7510

          k =-0.5000 0.1387 0.0601 ( 10903 PWs)   bands (ev):

   -12.2699 -12.2237  -6.9220  -6.7908  -6.6130  -6.5611  -5.4624  -5.3777
    -4.8162  -4.7472  -3.6442  -3.5744   2.1826   2.2759   4.0986   4.3711

          k =-0.5000 0.2773-0.2497 ( 10904 PWs)   bands (ev):

   -12.2587 -12.2012  -7.1409  -6.9746  -6.5510  -6.5160  -5.4663  -5.3662
    -4.5777  -4.5039  -3.7879  -3.7236   2.3947   2.4175   4.2245   4.4818

          k =-0.5000 0.2773-0.0948 ( 10895 PWs)   bands (ev):

   -12.2577 -12.2113  -7.0468  -6.9155  -6.6314  -6.5880  -5.3859  -5.2887
    -4.6958  -4.6189  -3.7342  -3.6728   2.3198   2.3983   4.2562   4.5358

          k =-0.5000 0.2773 0.0601 ( 10910 PWs)   bands (ev):

   -12.2507 -12.2330  -6.8585  -6.8371  -6.7304  -6.6808  -5.2628  -5.2032
    -4.8894  -4.8361  -3.6264  -3.5973   2.2886   2.3408   4.3692   4.5502

     the Fermi energy is     1.1266 ev

!    total energy              =     -39.61399320 Ry
     estimated scf accuracy    <          9.3E-11 Ry
     smearing contrib. (-TS)   =      -0.00000000 Ry
     internal energy E=F+TS    =     -39.61399320 Ry

     The total energy is F=E-TS. E is the sum of the following terms:
     one-electron contribution =     -16.24863280 Ry
     hartree contribution      =      13.52365900 Ry
     xc contribution           =     -20.24649584 Ry
     ewald contribution        =     -16.64252357 Ry

     convergence has been achieved in   5 iterations

     Forces acting on atoms (cartesian axes, Ry/au):

     atom    1 type  1   force =     0.00023719    0.00020858    0.00092711
     atom    2 type  1   force =    -0.00023719   -0.00020858   -0.00092711
     atom    3 type  1   force =    -0.00023719    0.00020858   -0.00092711
     atom    4 type  1   force =     0.00023719   -0.00020858    0.00092711
     atom    5 type  2   force =     0.00020185    0.00026304    0.00030407
     atom    6 type  2   force =    -0.00020185   -0.00026304   -0.00030407
     atom    7 type  2   force =    -0.00020185    0.00026304   -0.00030407
     atom    8 type  2   force =     0.00020185   -0.00026304    0.00030407
     atom    9 type  2   force =     0.00056277    0.00119506    0.00016202
     atom   10 type  2   force =    -0.00056277   -0.00119506   -0.00016202
     atom   11 type  2   force =    -0.00056277    0.00119506   -0.00016202
     atom   12 type  2   force =     0.00056277   -0.00119506    0.00016202
     atom   13 type  2   force =    -0.00006544    0.00015373    0.00012135
     atom   14 type  2   force =     0.00006544   -0.00015373   -0.00012135
     atom   15 type  2   force =     0.00006544    0.00015373   -0.00012135
     atom   16 type  2   force =    -0.00006544   -0.00015373    0.00012135

     Total force =     0.003450     Total SCF correction =     0.000005


     Computing stress (Cartesian axis) and pressure

          total   stress  (Ry/bohr**3)                   (kbar)     P=       10.30
   0.00006656   0.00000000   0.00000048            9.79        0.00        0.07
   0.00000000   0.00007477   0.00000000            0.00       11.00        0.00
   0.00000048   0.00000000   0.00006869            0.07        0.00       10.10

     Energy error            =      3.5E-05 Ry
     Gradient error          =      1.2E-03 Ry/Bohr

     number of scf cycles    =   3
     number of bfgs steps    =   2

     energy             old  =     -39.6139580285 Ry
     energy             new  =     -39.6139932023 Ry

     CASE: energy            _new < energy            _old

     new trust radius        =       0.0033979029 bohr
     new conv_thr            =            1.0E-10 Ry


ATOMIC_POSITIONS (crystal)
B             0.1421475330        0.5436581385        0.6443004729
B             0.8578524670        0.4563418615        0.3556995271
B             0.8578524670        0.0436581385        0.8556995271
B             0.1421475330        0.9563418615        0.1443004729
H             0.0878937199        0.0049810536        0.3109590124
H             0.9121062801        0.9950189464        0.6890409876
H             0.9121062801        0.5049810536        0.1890409876
H             0.0878937199        0.4950189464        0.8109590124
H             0.1417569354        0.1321189147        0.0241757751
H             0.8582430646        0.8678810853        0.9758242249
H             0.8582430646        0.6321189147        0.4758242249
H             0.1417569354        0.3678810853        0.5241757751
H             0.3874343926        0.6515319688        0.6714651309
H             0.6125656074        0.3484680312        0.3285348691
H             0.6125656074        0.1515319688        0.8285348691
H             0.3874343926        0.8484680312        0.1714651309



     Writing config-only to output data dir ./bh3.save/
     NEW-OLD atomic charge density approx. for the potential

     total cpu time spent up to now is        5.2 secs

     Self-consistent Calculation

     iteration #  1     ecut=    75.00 Ry     beta= 0.70
     Davidson diagonalization with overlap
     ethr =  1.00E-06,  avg # of iterations =  2.0

     Threshold (ethr) on eigenvalues was too large:
     Diagonalizing with lowered threshold

     Davidson diagonalization with overlap
     ethr =  2.93E-08,  avg # of iterations =  1.2

     total cpu time spent up to now is        5.5 secs

     total energy              =     -39.61400464 Ry
     estimated scf accuracy    <       0.00000826 Ry

     iteration #  2     ecut=    75.00 Ry     beta= 0.70
     Davidson diagonalization with overlap
     ethr =  3.44E-08,  avg # of iterations =  2.0

     total cpu time spent up to now is        5.7 secs

     total energy              =     -39.61400666 Ry
     estimated scf accuracy    <       0.00000102 Ry

     iteration #  3     ecut=    75.00 Ry     beta= 0.70
     Davidson diagonalization with overlap
     ethr =  4.26E-09,  avg # of iterations =  2.0

     total cpu time spent up to now is        5.9 secs

     total energy              =     -39.61400683 Ry
     estimated scf accuracy    <       0.00000002 Ry

     iteration #  4     ecut=    75.00 Ry     beta= 0.70
     Davidson diagonalization with overlap
     ethr =  8.52E-11,  avg # of iterations =  2.0

     total cpu time spent up to now is        6.1 secs

     total energy              =     -39.61400683 Ry
     estimated scf accuracy    <          2.0E-09 Ry

     iteration #  5     ecut=    75.00 Ry     beta= 0.70
     Davidson diagonalization with overlap
     ethr =  8.29E-12,  avg # of iterations =  1.5

     total cpu time spent up to now is        6.2 secs

     total energy              =     -39.61400683 Ry
     estimated scf accuracy    <          1.4E-10 Ry

     iteration #  6     ecut=    75.00 Ry     beta= 0.70
     Davidson diagonalization with overlap
     ethr =  6.01E-13,  avg # of iterations =  2.0

     total cpu time spent up to now is        6.6 secs

     End of self-consistent calculation

          k = 0.0000 0.0000 0.0000 ( 10845 PWs)   bands (ev):

   -12.6041 -12.1487  -7.1409  -6.9782  -6.3132  -6.1221  -5.3469  -4.9976
    -4.8619  -4.7207  -3.6603  -3.3015   2.0433   3.1353   4.6675   4.7878

          k = 0.0000 0.0000 0.1549 ( 10896 PWs)   bands (ev):

   -12.5559 -12.1851  -7.2283  -6.9812  -6.5224  -6.1755  -5.1239  -4.9145
    -4.8160  -4.6943  -3.5865  -3.2944   2.1269   3.0217   4.6526   4.7981

          k = 0.0000 0.0000 0.3097 ( 10899 PWs)   bands (ev):

   -12.4326 -12.2895  -7.2958  -7.1607  -6.5327  -6.3354  -4.9960  -4.9804
    -4.5641  -4.5572  -3.4225  -3.3079   2.3793   2.7336   4.5071   4.7120

          k = 0.0000 0.1387 0.0000 ( 10864 PWs)   bands (ev):

   -12.5629 -12.1945  -7.0918  -6.9654  -6.3827  -6.2500  -5.3047  -4.9783
    -4.7703  -4.7141  -3.6197  -3.3230   2.1148   2.9739   4.7618   4.7799

          k = 0.0000 0.1387 0.1549 ( 10889 PWs)   bands (ev):

   -12.5205 -12.2201  -7.2921  -6.9923  -6.5301  -6.1304  -5.1372  -4.8670
    -4.8149  -4.6538  -3.5660  -3.3207   2.1712   2.8784   4.7245   4.9055

          k = 0.0000 0.1387 0.3097 ( 10900 PWs)   bands (ev):

   -12.4149 -12.2987  -7.4218  -7.2951  -6.3770  -6.1973  -4.9841  -4.9188
    -4.6311  -4.5449  -3.4327  -3.3353   2.3605   2.6410   4.6720   4.8620

          k = 0.0000 0.2773 0.0000 ( 10878 PWs)   bands (ev):

   -12.4528 -12.3121  -6.9773  -6.9291  -6.5098  -6.4663  -5.1905  -5.0504
    -4.6463  -4.6452  -3.5163  -3.3982   2.3194   2.6339   4.7983   4.9662

          k = 0.0000 0.2773 0.1549 ( 10877 PWs)   bands (ev):

   -12.4276 -12.3126  -7.3000  -7.1674  -6.3634  -6.1829  -5.0891  -4.9737
    -4.6709  -4.6078  -3.4978  -3.3976   2.3181   2.5791   4.9250   5.0915

          k = 0.0000 0.2773 0.3097 ( 10892 PWs)   bands (ev):

   -12.3722 -12.3275  -7.5420  -7.4910  -6.1405  -6.0654  -4.9158  -4.8358
    -4.6936  -4.6014  -3.4345  -3.3941   2.3654   2.4693   5.1151   5.2464

          k = 0.1667 0.0000 0.0832 ( 10876 PWs)   bands (ev):

   -12.5363 -12.1429  -7.0879  -6.8812  -6.6188  -6.1705  -5.1497  -5.0307
    -4.8499  -4.8228  -3.7105  -3.4024   1.9903   2.8269   4.5629   4.5752

          k = 0.1667 0.0000 0.2381 ( 10892 PWs)   bands (ev):

   -12.4545 -12.2043  -7.1815  -7.0921  -6.6500  -6.2191  -5.0749  -4.9842
    -4.7363  -4.5841  -3.6505  -3.4299   2.1706   2.6555   4.4573   4.7468

          k = 0.1667 0.0000 0.3930 ( 10890 PWs)   bands (ev):

   -12.3294 -12.3218  -7.2894  -7.1468  -6.4684  -6.3582  -5.1677  -5.1020
    -4.5943  -4.4606  -3.4762  -3.4226   2.4138   2.5382   4.5767   4.7091

          k = 0.1667 0.0000-0.2265 ( 10877 PWs)   bands (ev):

   -12.4519 -12.2146  -7.2589  -6.9774  -6.4359  -6.3079  -5.3425  -5.1034
    -4.7156  -4.5497  -3.5192  -3.3357   2.1817   2.8859   4.7327   4.7571

          k = 0.1667 0.0000-0.0716 ( 10873 PWs)   bands (ev):

   -12.5360 -12.1479  -7.1071  -6.9049  -6.3678  -6.2115  -5.4813  -5.0551
    -4.8939  -4.6844  -3.6541  -3.3304   2.0249   2.9660   4.5706   4.6862

          k = 0.1667 0.1387 0.0832 ( 10885 PWs)   bands (ev):

   -12.4997 -12.1812  -7.1059  -6.8878  -6.6091  -6.2006  -5.2153  -5.0252
    -4.8121  -4.7367  -3.6923  -3.4249   2.0875   2.7794   4.6124   4.7639

          k = 0.1667 0.1387 0.2381 ( 10904 PWs)   bands (ev):

   -12.4286 -12.2256  -7.2843  -7.1806  -6.4970  -6.1702  -5.1289  -4.9409
    -4.7447  -4.5570  -3.6509  -3.4373   2.2191   2.6408   4.5594   4.9266

          k = 0.1667 0.1387 0.3930 ( 10881 PWs)   bands (ev):

   -12.3242 -12.3181  -7.3806  -7.2627  -6.4258  -6.1951  -5.1759  -5.0291
    -4.6136  -4.4803  -3.4910  -3.4072   2.3596   2.5165   4.5693   4.9421

          k = 0.1667 0.1387-0.2265 ( 10880 PWs)   bands (ev):

   -12.4270 -12.2345  -7.3179  -7.0354  -6.5120  -6.1802  -5.2927  -5.0389
    -4.7121  -4.5757  -3.4957  -3.3472   2.1801   2.7380   4.7217   4.8033

          k = 0.1667 0.1387-0.0716 ( 10861 PWs)   bands (ev):

   -12.4997 -12.1856  -7.0894  -6.8880  -6.4504  -6.3000  -5.4103  -5.0043
    -4.8391  -4.7054  -3.6191  -3.3529   2.0804   2.8477   4.5490   4.8993

          k = 0.1667 0.2773 0.0832 ( 10900 PWs)   bands (ev):

   -12.4027 -12.2809  -7.0870  -6.9887  -6.4880  -6.3169  -5.2131  -5.1225
    -4.6956  -4.6543  -3.6171  -3.5021   2.3328   2.6058   4.8915   5.0675

          k = 0.1667 0.2773 0.2381 ( 10893 PWs)   bands (ev):

   -12.3623 -12.2844  -7.3745  -7.3258  -6.2661  -6.1444  -5.1289  -5.0341
    -4.6470  -4.5628  -3.5950  -3.4946   2.3633   2.5417   4.8837   5.1976

          k = 0.1667 0.2773 0.3930 ( 10887 PWs)   bands (ev):

   -12.3150 -12.3126  -7.4793  -7.4370  -6.2520  -6.1239  -5.0890  -4.9844
    -4.6160  -4.5425  -3.4726  -3.4249   2.3391   2.4209   4.7842   5.1183

          k = 0.1667 0.2773-0.2265 ( 10886 PWs)   bands (ev):

   -12.3636 -12.2897  -7.3441  -7.2294  -6.3850  -6.2178  -5.1297  -4.9925
    -4.6933  -4.6288  -3.4402  -3.3834   2.2434   2.4507   4.7941   4.8780

          k = 0.1667 0.2773-0.0716 ( 10883 PWs)   bands (ev):

   -12.4039 -12.2837  -7.0168  -6.9033  -6.5465  -6.4521  -5.2448  -5.0653
    -4.7311  -4.6965  -3.5273  -3.4228   2.2620   2.5580   4.7250   4.9870

          k = 0.3333 0.0000 0.1665 ( 10872 PWs)   bands (ev):

   -12.3903 -12.1310  -7.1521  -6.9774  -6.5818  -6.2319  -5.2733  -5.0849
    -4.8240  -4.6022  -3.9201  -3.6862   2.0265   2.3650   4.4226   4.6606

          k = 0.3333 0.0000 0.3213 ( 10897 PWs)   bands (ev):

   -12.3226 -12.1868  -7.3166  -7.0168  -6.4792  -6.2430  -5.3443  -5.1733
    -4.6972  -4.4661  -3.8509  -3.6746   2.2435   2.2745   4.6338   4.7929

          k = 0.3333 0.0000 0.4762 ( 10921 PWs)   bands (ev):

   -12.2812 -12.2407  -7.2479  -6.9109  -6.4148  -6.3309  -5.5323  -5.3072
    -4.7076  -4.5369  -3.5988  -3.5781   2.1201   2.5242   4.4289   4.6192

          k = 0.3333 0.0000-0.1433 ( 10880 PWs)   bands (ev):

   -12.3703 -12.1711  -7.0266  -6.7621  -6.4779  -6.3932  -5.6477  -5.3373
    -4.7982  -4.6720  -3.6178  -3.4438   2.0300   2.5878   4.2380   4.3297

          k = 0.3333 0.0000 0.0116 ( 10867 PWs)   bands (ev):

   -12.4117 -12.1294  -6.9041  -6.8175  -6.6638  -6.3231  -5.4046  -5.3031
    -4.7922  -4.7711  -3.7762  -3.5243   1.9768   2.4404   4.1428   4.4595

          k = 0.3333 0.1387 0.1665 ( 10887 PWs)   bands (ev):

   -12.3645 -12.1544  -7.1460  -6.9959  -6.5770  -6.2574  -5.3183  -5.1546
    -4.7563  -4.5788  -3.8863  -3.6526   2.1465   2.4147   4.3965   4.7913

          k = 0.3333 0.1387 0.3213 ( 10900 PWs)   bands (ev):

   -12.3070 -12.1968  -7.3018  -7.0693  -6.5131  -6.2392  -5.3868  -5.1481
    -4.6691  -4.4690  -3.7980  -3.6357   2.2372   2.3807   4.4431   4.8574

          k = 0.3333 0.1387 0.4762 ( 10887 PWs)   bands (ev):

   -12.2739 -12.2411  -7.2327  -6.9696  -6.5602  -6.2948  -5.4296  -5.2425
    -4.7076  -4.5621  -3.5748  -3.5607   2.1275   2.5073   4.3701   4.6391

          k = 0.3333 0.1387-0.1433 ( 10882 PWs)   bands (ev):

   -12.3492 -12.1876  -7.0115  -6.7979  -6.5697  -6.4560  -5.5102  -5.2337
    -4.7996  -4.7273  -3.6004  -3.4616   2.0706   2.5579   4.2476   4.5045

          k = 0.3333 0.1387 0.0116 ( 10885 PWs)   bands (ev):

   -12.3840 -12.1553  -6.8957  -6.8175  -6.6917  -6.3839  -5.4261  -5.2015
    -4.8267  -4.7430  -3.7580  -3.5415   2.0789   2.4723   4.2731   4.5916

          k = 0.3333 0.2773 0.1665 ( 10902 PWs)   bands (ev):

   -12.2978 -12.2174  -7.1192  -7.0600  -6.4926  -6.3554  -5.3496  -5.2822
    -4.6495  -4.5827  -3.7606  -3.6520   2.3786   2.4776   4.5097   4.7608

          k = 0.3333 0.2773 0.3213 ( 10898 PWs)   bands (ev):

   -12.2686 -12.2263  -7.2603  -7.1778  -6.4748  -6.3369  -5.3460  -5.2211
    -4.5784  -4.4997  -3.6776  -3.6052   2.3437   2.4332   4.3976   4.6165

          k = 0.3333 0.2773 0.4762 ( 10897 PWs)   bands (ev):

   -12.2582 -12.2456  -7.1938  -7.1010  -6.5732  -6.4262  -5.2369  -5.1606
    -4.6939  -4.6304  -3.5366  -3.5326   2.2208   2.3926   4.4097   4.5690

          k = 0.3333 0.2773-0.1433 ( 10918 PWs)   bands (ev):

   -12.2957 -12.2337  -6.9748  -6.8854  -6.6429  -6.5621  -5.2621  -5.1180
    -4.8362  -4.8090  -3.5578  -3.5059   2.2169   2.4236   4.4655   4.6957

          k = 0.3333 0.2773 0.0116 ( 10902 PWs)   bands (ev):

   -12.3120 -12.2244  -6.8802  -6.8518  -6.6538  -6.5286  -5.3330  -5.2013
    -4.8139  -4.7477  -3.6860  -3.5958   2.3037   2.4670   4.5816   4.7711

          k =-0.5000 0.0000-0.2497 ( 10874 PWs)   bands (ev):

   -12.3111 -12.1250  -7.3703  -6.9269  -6.4295  -6.2332  -5.3784  -5.1207
    -4.7845  -4.4821  -4.0693  -3.8636   2.1007   2.1901   4.5194   5.0197

          k =-0.5000 0.0000-0.0948 ( 10910 PWs)   bands (ev):

   -12.2993 -12.1491  -7.2495  -6.8661  -6.4497  -6.2972  -5.4615  -5.2877
    -4.7626  -4.5749  -3.9106  -3.7269   2.1393   2.1581   4.2090   4.7235

          k =-0.5000 0.0000 0.0601 ( 10883 PWs)   bands (ev):

   -12.2626 -12.2054  -6.9506  -6.7623  -6.5078  -6.4781  -5.5637  -5.5078
    -4.7622  -4.7189  -3.6458  -3.5672   2.1478   2.2082   4.0192   4.2310

          k =-0.5000 0.1387-0.2497 ( 10894 PWs)   bands (ev):

   -12.2918 -12.1410  -7.3061  -6.9254  -6.4759  -6.3354  -5.4347  -5.2022
    -4.7003  -4.4791  -3.9672  -3.7997   2.2258   2.2563   4.3325   4.8320

          k =-0.5000 0.1387-0.0948 ( 10897 PWs)   bands (ev):

   -12.2829 -12.1611  -7.1920  -6.8755  -6.5208  -6.3972  -5.4495  -5.2547
    -4.7523  -4.5758  -3.8536  -3.6984   2.1688   2.2837   4.1786   4.7425

          k =-0.5000 0.1387 0.0601 ( 10903 PWs)   bands (ev):

   -12.2541 -12.2077  -6.9195  -6.7888  -6.6070  -6.5539  -5.4584  -5.3737
    -4.8109  -4.7421  -3.6441  -3.5741   2.1812   2.2747   4.0915   4.3640

          k =-0.5000 0.2773-0.2497 ( 10904 PWs)   bands (ev):

   -12.2427 -12.1850  -7.1391  -6.9731  -6.5443  -6.5085  -5.4633  -5.3632
    -4.5718  -4.4981  -3.7869  -3.7225   2.3935   2.4162   4.2167   4.4734

          k =-0.5000 0.2773-0.0948 ( 10895 PWs)   bands (ev):

   -12.2418 -12.1951  -7.0448  -6.9139  -6.6253  -6.5809  -5.3819  -5.2849
    -4.6902  -4.6134  -3.7335  -3.6720   2.3185   2.3971   4.2486   4.5275

          k =-0.5000 0.2773 0.0601 ( 10910 PWs)   bands (ev):

   -12.2347 -12.2169  -6.8566  -6.8349  -6.7244  -6.6747  -5.2579  -5.1985
    -4.8842  -4.8309  -3.6262  -3.5970   2.2875   2.3398   4.3616   4.5416

     the Fermi energy is     1.1239 ev

!    total energy              =     -39.61400683 Ry
     estimated scf accuracy    <          8.4E-11 Ry
     smearing contrib. (-TS)   =      -0.00000000 Ry
     internal energy E=F+TS    =     -39.61400683 Ry

     The total energy is F=E-TS. E is the sum of the following terms:
     one-electron contribution =     -16.18985840 Ry
     hartree contribution      =      13.49575547 Ry
     xc contribution           =     -20.24075906 Ry
     ewald contribution        =     -16.67914485 Ry

     convergence has been achieved in   6 iterations

     Forces acting on atoms (cartesian axes, Ry/au):

     atom    1 type  1   force =     0.00005733   -0.00001846    0.00019133
     atom    2 type  1   force =    -0.00005733    0.00001846   -0.00019133
     atom    3 type  1   force =    -0.00005733   -0.00001846   -0.00019133
     atom    4 type  1   force =     0.00005733    0.00001846    0.00019133
     atom    5 type  2   force =     0.00037075    0.00016184    0.00009223
     atom    6 type  2   force =    -0.00037075   -0.00016184   -0.00009223
     atom    7 type  2   force =    -0.00037075    0.00016184   -0.00009223
     atom    8 type  2   force =     0.00037075   -0.00016184    0.00009223
     atom    9 type  2   force =    -0.00009660    0.00012455   -0.00002785
     atom   10 type  2   force =     0.00009660   -0.00012455    0.00002785
     atom   11 type  2   force =     0.00009660    0.00012455    0.00002785
     atom   12 type  2   force =    -0.00009660   -0.00012455   -0.00002785
     atom   13 type  2   force =    -0.00027510   -0.00000936    0.00013549
     atom   14 type  2   force =     0.00027510    0.00000936   -0.00013549
     atom   15 type  2   force =     0.00027510   -0.00000936   -0.00013549
     atom   16 type  2   force =    -0.00027510    0.00000936    0.00013549

     Total force =     0.001153     Total SCF correction =     0.000008


     Computing stress (Cartesian axis) and pressure

          total   stress  (Ry/bohr**3)                   (kbar)     P=        9.29
   0.00006124   0.00000000  -0.00000056            9.01        0.00       -0.08
   0.00000000   0.00006669   0.00000000            0.00        9.81        0.00
  -0.00000056   0.00000000   0.00006159           -0.08        0.00        9.06

     Energy error            =      1.4E-05 Ry
     Gradient error          =      3.7E-04 Ry/Bohr

     bfgs converged in   4 scf cycles and   3 bfgs steps
     (criteria: energy <  1.0E-04 Ry, force <  1.0E-03 Ry/Bohr)

     End of BFGS Geometry Optimization

     Final energy             =     -39.6140068307 Ry

     File ./bh3.bfgs deleted, as requested
Begin final coordinates

ATOMIC_POSITIONS (crystal)
B             0.1421475330        0.5436581385        0.6443004729
B             0.8578524670        0.4563418615        0.3556995271
B             0.8578524670        0.0436581385        0.8556995271
B             0.1421475330        0.9563418615        0.1443004729
H             0.0878937199        0.0049810536        0.3109590124
H             0.9121062801        0.9950189464        0.6890409876
H             0.9121062801        0.5049810536        0.1890409876
H             0.0878937199        0.4950189464        0.8109590124
H             0.1417569354        0.1321189147        0.0241757751
H             0.8582430646        0.8678810853        0.9758242249
H             0.8582430646        0.6321189147        0.4758242249
H             0.1417569354        0.3678810853        0.5241757751
H             0.3874343926        0.6515319688        0.6714651309
H             0.6125656074        0.3484680312        0.3285348691
H             0.6125656074        0.1515319688        0.8285348691
H             0.3874343926        0.8484680312        0.1714651309
End final coordinates



     Writing all to output data dir ./bh3.save/
 
     init_run     :      0.35s CPU      0.46s WALL (       1 calls)
     electrons    :      4.68s CPU      4.98s WALL (       4 calls)
     update_pot   :      0.21s CPU      0.22s WALL (       3 calls)
     forces       :      0.30s CPU      0.31s WALL (       4 calls)
     stress       :      0.51s CPU      0.51s WALL (       4 calls)

     Called by init_run:
     wfcinit      :      0.09s CPU      0.13s WALL (       1 calls)
     potinit      :      0.03s CPU      0.04s WALL (       1 calls)
     hinit0       :      0.04s CPU      0.08s WALL (       1 calls)

     Called by electrons:
     c_bands      :      3.70s CPU      3.85s WALL (      25 calls)
     sum_band     :      0.74s CPU      0.76s WALL (      25 calls)
     v_of_rho     :      0.13s CPU      0.13s WALL (      26 calls)
     newd         :      0.06s CPU      0.07s WALL (      26 calls)
     mix_rho      :      0.02s CPU      0.02s WALL (      25 calls)

     Called by c_bands:
     init_us_2    :      0.07s CPU      0.07s WALL (     708 calls)
     init_us_2:cp :      0.06s CPU      0.07s WALL (     708 calls)
     cegterg      :      3.10s CPU      3.17s WALL (     300 calls)

     Called by *egterg:
     cdiaghg      :      0.28s CPU      0.30s WALL (     901 calls)
     h_psi        :      2.67s CPU      2.74s WALL (     985 calls)
     s_psi        :      0.04s CPU      0.04s WALL (     985 calls)
     g_psi        :      0.01s CPU      0.01s WALL (     673 calls)

     Called by h_psi:
     h_psi:calbec :      0.09s CPU      0.10s WALL (     985 calls)
     vloc_psi     :      2.52s CPU      2.57s WALL (     985 calls)
     add_vuspsi   :      0.05s CPU      0.05s WALL (     985 calls)

     General routines
     calbec       :      0.14s CPU      0.15s WALL (    1525 calls)
     fft          :      0.10s CPU      0.14s WALL (     436 calls)
     ffts         :      0.01s CPU      0.01s WALL (      51 calls)
     fftw         :      2.81s CPU      2.86s WALL (   30332 calls)
     interpolate  :      0.01s CPU      0.01s WALL (      26 calls)
 
     Parallel routines
 
     PWSCF        :      6.31s CPU      6.93s WALL

 
   This run was terminated on:   9:19:18   1Dec2023            

=------------------------------------------------------------------------------=
   JOB DONE.
=------------------------------------------------------------------------------=
Job execution finished at: Fri Dec  1 09:19:19 IST 2023
