
     Program PWSCF v.6.7MaX starts on  1Dec2023 at 20:55: 4 

     This program is part of the open-source Quantum ESPRESSO suite
     for quantum simulation of materials; please cite
         "P. Giannozzi et al., J. Phys.:Condens. Matter 21 395502 (2009);
         "P. Giannozzi et al., J. Phys.:Condens. Matter 29 465901 (2017);
          URL http://www.quantum-espresso.org", 
     in publications or presentations arising from this work. More details at
     http://www.quantum-espresso.org/quote

     Parallel version (MPI), running on     1 processors

     MPI processes distributed on     1 nodes
     Reading input from K3AlH6_experimental.in

     Current dimensions of program PWSCF are:
     Max number of different atomic species (ntypx) = 10
     Max number of k-points (npk) =  40000
     Max angular momentum in pseudopotentials (lmaxx) =  3
     file Al.pbe-n-kjpaw_psl.1.0.0.UPF: wavefunction(s)  3S 3P renormalized
     file K.pbe-spn-kjpaw_psl.1.0.0.UPF: wavefunction(s)  3S renormalized

     IMPORTANT: XC functional enforced from input :
     Exchange-correlation= PBE
                           (   1   4   3   4   0   0   0)
     Any further DFT definition will be discarded
     Please, verify this is what you really want


     Subspace diagonalization in iterative solution of the eigenvalue problem:
     a serial algorithm will be used

     Message from routine setup:
     using ibrav=0 with symmetry is DISCOURAGED, use correct ibrav instead

     G-vector sticks info
     --------------------
     sticks:   dense  smooth     PW     G-vecs:    dense   smooth      PW
     Sum        3827    3061    869               252073   180385   27179



     bravais-lattice index     =            0
     lattice parameter (alat)  =      11.2914  a.u.
     unit-cell volume          =    2056.0729 (a.u.)^3
     number of atoms/cell      =           20
     number of atomic types    =            3
     number of electrons       =        72.00
     number of Kohn-Sham states=           43
     kinetic-energy cutoff     =      75.0000  Ry
     charge density cutoff     =     375.0000  Ry
     scf convergence threshold =      1.0E-08
     mixing beta               =       0.7000
     number of iterations used =            8  plain     mixing
     Exchange-correlation= PBE
                           (   1   4   3   4   0   0   0)

     celldm(1)=  11.291378  celldm(2)=   0.000000  celldm(3)=   0.000000
     celldm(4)=   0.000000  celldm(5)=   0.000000  celldm(6)=   0.000000

     crystal axes: (cart. coord. in units of alat)
               a(1) = (   1.000000   0.000000   0.000000 )  
               a(2) = (   0.000000   1.006241   0.000000 )  
               a(3) = (  -0.986032   0.000000   1.419371 )  

     reciprocal axes: (cart. coord. in units 2 pi/alat)
               b(1) = (  1.000000 -0.000000  0.694696 )  
               b(2) = (  0.000000  0.993798 -0.000000 )  
               b(3) = (  0.000000  0.000000  0.704538 )  


     PseudoPot. # 1 for H  read from file:
     ../../pseudopotentials/H.pbe-rrkjus_psl.1.0.0.UPF
     MD5 check sum: f52b6d4d1c606e5624b1dc7b2218f220
     Pseudo is Ultrasoft, Zval =  1.0
     Generated using "atomic" code by A. Dal Corso  v.5.1
     Using radial grid of  929 points,  2 beta functions with: 
                l(1) =   0
                l(2) =   0
     Q(r) pseudized with 0 coefficients 


     PseudoPot. # 2 for Al read from file:
     ../../pseudopotentials/Al.pbe-n-kjpaw_psl.1.0.0.UPF
     MD5 check sum: cfc449ca30b5f3223ec38ddd88ac046d
     Pseudo is Projector augmented-wave + core cor, Zval =  3.0
     Generated using "atomic" code by A. Dal Corso  v.5.1
     Shape of augmentation charge: PSQ
     Using radial grid of 1135 points,  6 beta functions with: 
                l(1) =   0
                l(2) =   0
                l(3) =   1
                l(4) =   1
                l(5) =   2
                l(6) =   2
     Q(r) pseudized with 0 coefficients 


     PseudoPot. # 3 for K  read from file:
     ../../pseudopotentials/K.pbe-spn-kjpaw_psl.1.0.0.UPF
     MD5 check sum: 7d58810084cac21f60fbe77ea2b688fd
     Pseudo is Projector augmented-wave + core cor, Zval =  9.0
     Generated using "atomic" code by A. Dal Corso  v.5.1
     Shape of augmentation charge: PSQ
     Using radial grid of 1165 points,  6 beta functions with: 
                l(1) =   0
                l(2) =   0
                l(3) =   1
                l(4) =   1
                l(5) =   2
                l(6) =   2
     Q(r) pseudized with 0 coefficients 


     atomic species   valence    mass     pseudopotential
        H              1.00     1.00750     H ( 1.00)
        Al             3.00    26.98100     Al( 1.00)
        K              9.00    39.09830     K ( 1.00)

      4 Sym. Ops., with inversion, found ( 2 have fractional translation)



   Cartesian axes

     site n.     atom                  positions (alat units)
         1           K   tau(   1) = (  -0.4956644   0.0284838   1.0631885  )
         2           K   tau(   2) = (   0.5096327   0.9777567   0.3561823  )
         3           K   tau(   3) = (   0.0166169   0.5316041   1.0658677  )
         4           K   tau(   4) = (  -0.0026486   0.4746364   0.3535031  )
         5           K   tau(   5) = (   0.0069842   0.0000000   0.7096854  )
         6           K   tau(   6) = (   0.5000000   0.5031203   0.0000000  )
         7           Al  tau(   7) = (   0.0000000   0.0000000   0.0000000  )
         8           Al  tau(   8) = (  -0.4930158   0.5031203   0.7096854  )
         9           H   tau(   9) = (  -0.8195883   0.2397190   1.3686029  )
        10           H   tau(  10) = (   0.8335567   0.7665215   0.0507679  )
        11           H   tau(  11) = (   0.3405408   0.7428393   0.7604532  )
        12           H   tau(  12) = (  -0.3265725   0.2634012   0.6589175  )
        13           H   tau(  13) = (  -0.2569553   0.6753195   0.6684083  )
        14           H   tau(  14) = (   0.2709237   0.3309210   0.7509624  )
        15           H   tau(  15) = (   0.7639395   0.1721993   0.0412770  )
        16           H   tau(  16) = (  -0.7499712   0.8340412   1.3780937  )
        17           H   tau(  17) = (   0.0618338   0.0195820   0.2881007  )
        18           H   tau(  18) = (  -0.0478654   0.9866585   1.1312701  )
        19           H   tau(  19) = (   0.4451504   0.5227023   0.4215847  )
        20           H   tau(  20) = (  -0.4311820   0.4835382   0.9977861  )

     number of k points=    56  Marzari-Vanderbilt smearing, width (Ry)=  0.0050
                       cart. coord. in units 2pi/alat
        k(    1) = (   0.0000000   0.0000000   0.0000000), wk =   0.0138889
        k(    2) = (   0.0000000   0.0000000   0.1761344), wk =   0.0277778
        k(    3) = (   0.0000000   0.0000000  -0.3522688), wk =   0.0138889
        k(    4) = (   0.0000000   0.1656330   0.0000000), wk =   0.0277778
        k(    5) = (   0.0000000   0.1656330   0.1761344), wk =   0.0555556
        k(    6) = (   0.0000000   0.1656330  -0.3522688), wk =   0.0277778
        k(    7) = (   0.0000000   0.3312661   0.0000000), wk =   0.0277778
        k(    8) = (   0.0000000   0.3312661   0.1761344), wk =   0.0555556
        k(    9) = (   0.0000000   0.3312661  -0.3522688), wk =   0.0277778
        k(   10) = (   0.0000000  -0.4968991   0.0000000), wk =   0.0138889
        k(   11) = (   0.0000000  -0.4968991   0.1761344), wk =   0.0277778
        k(   12) = (   0.0000000  -0.4968991  -0.3522688), wk =   0.0138889
        k(   13) = (   0.1666667   0.0000000   0.1157827), wk =   0.0277778
        k(   14) = (   0.1666667   0.0000000   0.2919171), wk =   0.0277778
        k(   15) = (   0.1666667   0.0000000  -0.2364861), wk =   0.0277778
        k(   16) = (   0.1666667   0.0000000  -0.0603517), wk =   0.0277778
        k(   17) = (   0.1666667   0.1656330   0.1157827), wk =   0.0555556
        k(   18) = (   0.1666667   0.1656330   0.2919171), wk =   0.0555556
        k(   19) = (   0.1666667   0.1656330  -0.2364861), wk =   0.0555556
        k(   20) = (   0.1666667   0.1656330  -0.0603517), wk =   0.0555556
        k(   21) = (   0.1666667   0.3312661   0.1157827), wk =   0.0555556
        k(   22) = (   0.1666667   0.3312661   0.2919171), wk =   0.0555556
        k(   23) = (   0.1666667   0.3312661  -0.2364861), wk =   0.0555556
        k(   24) = (   0.1666667   0.3312661  -0.0603517), wk =   0.0555556
        k(   25) = (   0.1666667  -0.4968991   0.1157827), wk =   0.0277778
        k(   26) = (   0.1666667  -0.4968991   0.2919171), wk =   0.0277778
        k(   27) = (   0.1666667  -0.4968991  -0.2364861), wk =   0.0277778
        k(   28) = (   0.1666667  -0.4968991  -0.0603517), wk =   0.0277778
        k(   29) = (   0.3333333   0.0000000   0.2315654), wk =   0.0277778
        k(   30) = (   0.3333333   0.0000000   0.4076998), wk =   0.0277778
        k(   31) = (   0.3333333   0.0000000  -0.1207033), wk =   0.0277778
        k(   32) = (   0.3333333   0.0000000   0.0554311), wk =   0.0277778
        k(   33) = (   0.3333333   0.1656330   0.2315654), wk =   0.0555556
        k(   34) = (   0.3333333   0.1656330   0.4076998), wk =   0.0555556
        k(   35) = (   0.3333333   0.1656330  -0.1207033), wk =   0.0555556
        k(   36) = (   0.3333333   0.1656330   0.0554311), wk =   0.0555556
        k(   37) = (   0.3333333   0.3312661   0.2315654), wk =   0.0555556
        k(   38) = (   0.3333333   0.3312661   0.4076998), wk =   0.0555556
        k(   39) = (   0.3333333   0.3312661  -0.1207033), wk =   0.0555556
        k(   40) = (   0.3333333   0.3312661   0.0554311), wk =   0.0555556
        k(   41) = (   0.3333333  -0.4968991   0.2315654), wk =   0.0277778
        k(   42) = (   0.3333333  -0.4968991   0.4076998), wk =   0.0277778
        k(   43) = (   0.3333333  -0.4968991  -0.1207033), wk =   0.0277778
        k(   44) = (   0.3333333  -0.4968991   0.0554311), wk =   0.0277778
        k(   45) = (  -0.5000000   0.0000000  -0.3473482), wk =   0.0138889
        k(   46) = (  -0.5000000   0.0000000  -0.1712138), wk =   0.0277778
        k(   47) = (  -0.5000000   0.0000000  -0.6996169), wk =   0.0138889
        k(   48) = (  -0.5000000   0.1656330  -0.3473482), wk =   0.0277778
        k(   49) = (  -0.5000000   0.1656330  -0.1712138), wk =   0.0555556
        k(   50) = (  -0.5000000   0.1656330  -0.6996169), wk =   0.0277778
        k(   51) = (  -0.5000000   0.3312661  -0.3473482), wk =   0.0277778
        k(   52) = (  -0.5000000   0.3312661  -0.1712138), wk =   0.0555556
        k(   53) = (  -0.5000000   0.3312661  -0.6996169), wk =   0.0277778
        k(   54) = (  -0.5000000  -0.4968991  -0.3473482), wk =   0.0138889
        k(   55) = (  -0.5000000  -0.4968991  -0.1712138), wk =   0.0277778
        k(   56) = (  -0.5000000  -0.4968991  -0.6996169), wk =   0.0138889

     Dense  grid:   252073 G-vectors     FFT dimensions: (  72,  72, 128)

     Smooth grid:   180385 G-vectors     FFT dimensions: (  64,  64, 108)

     Estimated max dynamical RAM per process >       1.87 GB

     Check: negative core charge=   -0.000002

     Initial potential from superposition of free atoms

     starting charge   71.88232, renormalised to   72.00000
     Starting wfcs are   68 randomized atomic wfcs
     Checking if some PAW data can be deallocated... 

     total cpu time spent up to now is       56.8 secs

     Self-consistent Calculation

     iteration #  1     ecut=    75.00 Ry     beta= 0.70
     Davidson diagonalization with overlap
     ethr =  1.00E-02,  avg # of iterations =  6.1

     total cpu time spent up to now is      166.7 secs

     total energy              =    -771.13799898 Ry
     estimated scf accuracy    <       1.27109310 Ry

     iteration #  2     ecut=    75.00 Ry     beta= 0.70
     Davidson diagonalization with overlap
     ethr =  1.77E-03,  avg # of iterations =  2.5

     total cpu time spent up to now is      266.7 secs

     total energy              =    -771.35587101 Ry
     estimated scf accuracy    <       0.07461495 Ry

     iteration #  3     ecut=    75.00 Ry     beta= 0.70
     Davidson diagonalization with overlap
     ethr =  1.04E-04,  avg # of iterations =  9.4

     total cpu time spent up to now is      394.7 secs

     total energy              =    -771.38058206 Ry
     estimated scf accuracy    <       0.00509080 Ry

     iteration #  4     ecut=    75.00 Ry     beta= 0.70
     Davidson diagonalization with overlap
     c_bands:  2 eigenvalues not converged
     c_bands:  1 eigenvalues not converged
     ethr =  7.07E-06,  avg # of iterations =  8.0

     total cpu time spent up to now is      523.0 secs

     total energy              =    -771.38235593 Ry
     estimated scf accuracy    <       0.00026279 Ry

     iteration #  5     ecut=    75.00 Ry     beta= 0.70
     Davidson diagonalization with overlap
     ethr =  3.65E-07,  avg # of iterations =  4.8

     total cpu time spent up to now is      627.2 secs

     total energy              =    -771.38244312 Ry
     estimated scf accuracy    <       0.00001360 Ry

     iteration #  6     ecut=    75.00 Ry     beta= 0.70
     Davidson diagonalization with overlap
     ethr =  1.89E-08,  avg # of iterations =  3.7

     total cpu time spent up to now is      742.4 secs

     total energy              =    -771.38244883 Ry
     estimated scf accuracy    <       0.00000060 Ry

     iteration #  7     ecut=    75.00 Ry     beta= 0.70
     Davidson diagonalization with overlap
     ethr =  8.36E-10,  avg # of iterations =  4.3

     total cpu time spent up to now is      863.1 secs

     End of self-consistent calculation

          k = 0.0000 0.0000 0.0000 ( 22501 PWs)   bands (ev):

   -26.8840 -26.8649 -26.8588 -26.8537 -26.7418 -26.7279 -10.5973 -10.5798
   -10.4693 -10.4587 -10.4447 -10.4236 -10.4229 -10.4220 -10.4178 -10.3242
   -10.3234 -10.3193 -10.2938 -10.2141 -10.1956 -10.1897 -10.1539 -10.1382
    -3.3027  -2.8493   0.0297   0.5182   0.5217   0.5257   0.5488   0.5609
     1.7275   2.0723   2.1645   2.4676   5.5051   5.9508   7.2553   7.3090
     7.5211   8.0207   8.0215

          k = 0.0000 0.0000 0.1761 ( 22533 PWs)   bands (ev):

   -26.8814 -26.8679 -26.8580 -26.8544 -26.7395 -26.7297 -10.5853 -10.5667
   -10.5051 -10.4829 -10.4500 -10.4293 -10.4036 -10.3964 -10.3877 -10.3330
   -10.3311 -10.3269 -10.2882 -10.2272 -10.1877 -10.1832 -10.1585 -10.1477
    -3.2288  -2.9040   0.0026   0.3519   0.5216   0.5276   0.5448   0.5527
     1.9036   2.1261   2.2132   2.4039   5.8037   6.1193   7.1744   7.2675
     7.4254   7.5388   8.0908

          k = 0.0000 0.0000-0.3523 ( 22576 PWs)   bands (ev):

   -26.8749 -26.8749 -26.8562 -26.8562 -26.7344 -26.7344 -10.5518 -10.5518
   -10.5310 -10.5310 -10.4377 -10.4377 -10.3773 -10.3773 -10.3557 -10.3557
   -10.3442 -10.3442 -10.2605 -10.2605 -10.1715 -10.1715 -10.1666 -10.1666
    -3.0571  -3.0571   0.0886   0.0886   0.5289   0.5289   0.5425   0.5425
     2.1601   2.1601   2.2606   2.2606   6.5194   6.5194   6.5981   6.5982
     7.6776   7.6781   7.7898

          k = 0.0000 0.1656 0.0000 ( 22521 PWs)   bands (ev):

   -26.8817 -26.8642 -26.8596 -26.8546 -26.7416 -26.7294 -10.5942 -10.5705
   -10.4866 -10.4657 -10.4592 -10.4459 -10.4165 -10.3961 -10.3871 -10.3807
   -10.3304 -10.3152 -10.2470 -10.2095 -10.1973 -10.1930 -10.1570 -10.1434
    -3.2371  -2.8400   0.0849   0.3861   0.3885   0.4982   0.5207   0.5307
     1.8418   2.1512   2.2002   2.4793   5.7684   6.1414   7.1213   7.3310
     7.5915   7.7873   8.1964

          k = 0.0000 0.1656 0.1761 ( 22560 PWs)   bands (ev):

   -26.8794 -26.8670 -26.8588 -26.8553 -26.7396 -26.7310 -10.5812 -10.5583
   -10.5085 -10.4829 -10.4585 -10.4455 -10.4020 -10.3926 -10.3766 -10.3711
   -10.3396 -10.3270 -10.2488 -10.2220 -10.1877 -10.1837 -10.1613 -10.1496
    -3.1697  -2.8848   0.0181   0.2686   0.4280   0.4811   0.5055   0.5219
     2.0014   2.1952   2.2627   2.4255   6.0073   6.2868   7.1825   7.2630
     7.4565   7.5175   8.0440

          k = 0.0000 0.1656-0.3523 ( 22574 PWs)   bands (ev):

   -26.8734 -26.8734 -26.8570 -26.8570 -26.7351 -26.7351 -10.5479 -10.5479
   -10.5254 -10.5254 -10.4481 -10.4481 -10.3850 -10.3850 -10.3633 -10.3633
   -10.3498 -10.3498 -10.2419 -10.2419 -10.1730 -10.1730 -10.1650 -10.1650
    -3.0162  -3.0162   0.0537   0.0537   0.4616   0.4616   0.5123   0.5123
     2.2286   2.2286   2.3119   2.3119   6.5085   6.5085   6.8411   6.8412
     7.7009   7.7014   7.8157

          k = 0.0000 0.3313 0.0000 ( 22565 PWs)   bands (ev):

   -26.8758 -26.8627 -26.8622 -26.8568 -26.7403 -26.7331 -10.5815 -10.5453
   -10.5242 -10.4865 -10.4712 -10.4433 -10.4326 -10.3977 -10.3780 -10.3608
   -10.3445 -10.3242 -10.2209 -10.2049 -10.1888 -10.1854 -10.1647 -10.1547
    -3.0771  -2.8416   0.1164   0.1343   0.2266   0.4496   0.4778   0.4907
     2.0505   2.2459   2.3083   2.4837   6.3761   6.5786   6.9622   7.3304
     7.5303   7.6414   7.8999

          k = 0.0000 0.3313 0.1761 ( 22570 PWs)   bands (ev):

   -26.8740 -26.8649 -26.8613 -26.8576 -26.7392 -26.7341 -10.5682 -10.5363
   -10.5235 -10.4908 -10.4747 -10.4567 -10.4142 -10.3896 -10.3832 -10.3678
   -10.3550 -10.3392 -10.2196 -10.2112 -10.1838 -10.1749 -10.1678 -10.1541
    -3.0288  -2.8592  -0.0388   0.0379   0.3427   0.4529   0.4620   0.4737
     2.1833   2.3225   2.3437   2.4549   6.3708   6.6124   7.2379   7.3675
     7.5185   7.5558   7.9191

          k = 0.0000 0.3313-0.3523 ( 22578 PWs)   bands (ev):

   -26.8696 -26.8696 -26.8594 -26.8594 -26.7365 -26.7365 -10.5406 -10.5406
   -10.5127 -10.5127 -10.4653 -10.4653 -10.3964 -10.3964 -10.3788 -10.3788
   -10.3598 -10.3598 -10.2177 -10.2177 -10.1743 -10.1743 -10.1604 -10.1604
    -2.9284  -2.9284  -0.0935  -0.0935   0.4152   0.4152   0.4672   0.4672
     2.3381   2.3381   2.4168   2.4168   6.5089   6.5089   7.3954   7.3956
     7.6529   7.6533   7.8706

          k = 0.0000-0.4969 0.0000 ( 22572 PWs)   bands (ev):

   -26.8686 -26.8686 -26.8596 -26.8596 -26.7373 -26.7373 -10.5575 -10.5575
   -10.5112 -10.5112 -10.4745 -10.4745 -10.4024 -10.4024 -10.3726 -10.3726
   -10.3356 -10.3356 -10.2124 -10.2124 -10.1750 -10.1750 -10.1668 -10.1668
    -2.9173  -2.9173   0.0055   0.0055   0.3775   0.3775   0.4484   0.4484
     2.2068   2.2068   2.4319   2.4319   6.8539   6.8539   6.9831   6.9831
     7.4574   7.4575   8.0184

          k = 0.0000-0.4969 0.1761 ( 22576 PWs)   bands (ev):

   -26.8677 -26.8677 -26.8605 -26.8605 -26.7373 -26.7373 -10.5479 -10.5479
   -10.5086 -10.5086 -10.4742 -10.4742 -10.4008 -10.4008 -10.3761 -10.3761
   -10.3542 -10.3542 -10.2102 -10.2102 -10.1753 -10.1753 -10.1612 -10.1612
    -2.8994  -2.8994  -0.0990  -0.0990   0.4092   0.4092   0.4419   0.4419
     2.3144   2.3144   2.4338   2.4338   6.6128   6.6129   7.2885   7.2885
     7.6964   7.6965   7.8831

          k = 0.0000-0.4969-0.3523 ( 22548 PWs)   bands (ev):

   -26.8665 -26.8665 -26.8618 -26.8618 -26.7373 -26.7373 -10.5384 -10.5384
   -10.5054 -10.5054 -10.4688 -10.4688 -10.4060 -10.4060 -10.3848 -10.3848
   -10.3651 -10.3651 -10.2097 -10.2097 -10.1742 -10.1742 -10.1568 -10.1568
    -2.8810  -2.8810  -0.1901  -0.1901   0.4153   0.4153   0.4528   0.4528
     2.3845   2.3845   2.4692   2.4692   6.5383   6.5383   7.3026   7.3027
     7.9157   7.9157   8.0519

          k = 0.1667 0.0000 0.1158 ( 22528 PWs)   bands (ev):

   -26.8805 -26.8655 -26.8592 -26.8547 -26.7407 -26.7303 -10.5833 -10.5711
   -10.4932 -10.4854 -10.4504 -10.4499 -10.4101 -10.3959 -10.3773 -10.3773
   -10.3344 -10.3206 -10.2444 -10.2110 -10.2011 -10.1811 -10.1635 -10.1466
    -3.2075  -2.8562   0.0370   0.3400   0.4320   0.4909   0.5083   0.5188
     1.9023   2.1511   2.2439   2.4734   5.8761   6.2262   7.1803   7.2573
     7.5177   7.6001   7.9421

          k = 0.1667 0.0000 0.2919 ( 22576 PWs)   bands (ev):

   -26.8754 -26.8712 -26.8577 -26.8563 -26.7367 -26.7338 -10.5587 -10.5509
   -10.5283 -10.5120 -10.4514 -10.4409 -10.3904 -10.3805 -10.3708 -10.3635
   -10.3490 -10.3468 -10.2416 -10.2293 -10.1880 -10.1804 -10.1588 -10.1581
    -3.0743  -2.9591   0.0193   0.1131   0.4617   0.4675   0.5074   0.5190
     2.1464   2.2321   2.2861   2.3804   6.4250   6.5057   6.8264   6.9059
     7.6334   7.6853   7.7608

          k = 0.1667 0.0000-0.2365 ( 22585 PWs)   bands (ev):

   -26.8777 -26.8687 -26.8583 -26.8557 -26.7385 -26.7321 -10.5740 -10.5512
   -10.5158 -10.5004 -10.4543 -10.4431 -10.3945 -10.3925 -10.3775 -10.3602
   -10.3431 -10.3359 -10.2432 -10.2278 -10.1918 -10.1883 -10.1594 -10.1455
    -3.1179  -2.9237   0.0136   0.1972   0.4279   0.4781   0.4993   0.5247
     2.1157   2.2502   2.2510   2.3608   6.1437   6.4322   7.0723   7.1648
     7.4774   7.5051   7.9432

          k = 0.1667 0.0000-0.0604 ( 22576 PWs)   bands (ev):

   -26.8814 -26.8644 -26.8595 -26.8545 -26.7415 -26.7296 -10.5889 -10.5736
   -10.4753 -10.4744 -10.4640 -10.4541 -10.4169 -10.3966 -10.3853 -10.3739
   -10.3306 -10.3145 -10.2443 -10.2132 -10.2026 -10.1890 -10.1600 -10.1390
    -3.2269  -2.8452   0.0809   0.3764   0.3870   0.4988   0.5181   0.5265
     1.8743   2.1592   2.1961   2.4657   5.7867   6.1848   7.1765   7.2922
     7.5438   7.9008   7.9251

          k = 0.1667 0.1656 0.1158 ( 22565 PWs)   bands (ev):

   -26.8785 -26.8648 -26.8599 -26.8555 -26.7408 -26.7316 -10.5954 -10.5453
   -10.5117 -10.4929 -10.4649 -10.4431 -10.4216 -10.3946 -10.3750 -10.3702
   -10.3254 -10.3226 -10.2311 -10.2169 -10.2040 -10.1732 -10.1674 -10.1475
    -3.1521  -2.8458   0.0705   0.2366   0.4120   0.4408   0.4817   0.5169
     1.9398   2.1709   2.2727   2.4864   6.0930   6.4197   6.9254   7.2372
     7.5597   7.6225   8.0245

          k = 0.1667 0.1656 0.2919 ( 22555 PWs)   bands (ev):

   -26.8738 -26.8699 -26.8583 -26.8570 -26.7372 -26.7347 -10.5634 -10.5419
   -10.5252 -10.5117 -10.4635 -10.4535 -10.4011 -10.3830 -10.3748 -10.3695
   -10.3440 -10.3337 -10.2315 -10.2234 -10.1912 -10.1752 -10.1620 -10.1563
    -3.0328  -2.9317   0.0098   0.0852   0.4404   0.4465   0.4638   0.4778
     2.1522   2.2244   2.3578   2.4178   6.5397   6.7065   6.8398   6.9337
     7.5013   7.6014   7.8766

          k = 0.1667 0.1656-0.2365 ( 22577 PWs)   bands (ev):

   -26.8759 -26.8677 -26.8589 -26.8564 -26.7388 -26.7332 -10.5780 -10.5345
   -10.5222 -10.5019 -10.4711 -10.4495 -10.4013 -10.3981 -10.3780 -10.3575
   -10.3397 -10.3334 -10.2294 -10.2245 -10.1935 -10.1824 -10.1612 -10.1483
    -3.0710  -2.9022   0.0271   0.1304   0.4172   0.4374   0.4588   0.5056
     2.1399   2.2220   2.3215   2.3975   6.3516   6.5810   7.0036   7.1656
     7.2875   7.7209   7.8718

          k = 0.1667 0.1656-0.0604 ( 22553 PWs)   bands (ev):

   -26.8793 -26.8638 -26.8601 -26.8553 -26.7415 -26.7310 -10.6007 -10.5476
   -10.5080 -10.4842 -10.4623 -10.4508 -10.4245 -10.3939 -10.3782 -10.3704
   -10.3241 -10.3172 -10.2304 -10.2194 -10.2044 -10.1802 -10.1640 -10.1423
    -3.1695  -2.8372   0.1295   0.2444   0.3921   0.4024   0.5204   0.5296
     1.9202   2.1733   2.2221   2.4765   6.0330   6.3722   6.8981   7.3615
     7.5392   7.6385   7.9657

          k = 0.1667 0.3313 0.1158 ( 22563 PWs)   bands (ev):

   -26.8734 -26.8630 -26.8620 -26.8575 -26.7403 -26.7348 -10.5925 -10.5440
   -10.5250 -10.4955 -10.4841 -10.4588 -10.4260 -10.3806 -10.3636 -10.3591
   -10.3342 -10.3297 -10.2320 -10.2064 -10.1954 -10.1787 -10.1611 -10.1485
    -3.0196  -2.8399   0.0634   0.0718   0.3056   0.4445   0.4552   0.4989
     2.0367   2.2125   2.3244   2.4837   6.4734   6.7603   6.8237   7.1079
     7.6443   7.7967   8.0181

          k = 0.1667 0.3313 0.2919 ( 22553 PWs)   bands (ev):

   -26.8699 -26.8669 -26.8604 -26.8590 -26.7382 -26.7367 -10.5605 -10.5443
   -10.5225 -10.5064 -10.4818 -10.4693 -10.4086 -10.3928 -10.3733 -10.3681
   -10.3483 -10.3371 -10.2159 -10.2108 -10.1876 -10.1745 -10.1607 -10.1543
    -2.9393  -2.8792  -0.0560  -0.0240   0.3933   0.4186   0.4340   0.4424
     2.2017   2.2736   2.4182   2.4617   6.5898   6.7068   7.1679   7.3473
     7.5486   7.7012   7.8092

          k = 0.1667 0.3313-0.2365 ( 22563 PWs)   bands (ev):

   -26.8714 -26.8654 -26.8608 -26.8584 -26.7391 -26.7358 -10.5734 -10.5400
   -10.5183 -10.4995 -10.4883 -10.4678 -10.4171 -10.3860 -10.3786 -10.3580
   -10.3459 -10.3381 -10.2195 -10.2087 -10.1826 -10.1762 -10.1642 -10.1541
    -2.9635  -2.8651  -0.0205  -0.0070   0.3374   0.4226   0.4411   0.4902
     2.1992   2.2678   2.3720   2.4382   6.6059   6.8098   7.0091   7.1403
     7.4393   7.8376   7.9222

          k = 0.1667 0.3313-0.0604 ( 22539 PWs)   bands (ev):

   -26.8740 -26.8628 -26.8617 -26.8573 -26.7407 -26.7345 -10.5979 -10.5459
   -10.5238 -10.4924 -10.4789 -10.4583 -10.4387 -10.3708 -10.3690 -10.3556
   -10.3322 -10.3262 -10.2361 -10.2055 -10.1937 -10.1739 -10.1674 -10.1484
    -3.0319  -2.8376   0.0638   0.1364   0.2885   0.4077   0.4916   0.5114
     2.0223   2.1919   2.2925   2.4695   6.5832   6.6208   6.8586   6.9649
     7.6786   7.7302   7.9142

          k = 0.1667-0.4969 0.1158 ( 22560 PWs)   bands (ev):

   -26.8672 -26.8672 -26.8600 -26.8600 -26.7382 -26.7382 -10.5732 -10.5732
   -10.5151 -10.5151 -10.4733 -10.4733 -10.3985 -10.3985 -10.3542 -10.3542
   -10.3414 -10.3414 -10.2188 -10.2188 -10.1842 -10.1842 -10.1520 -10.1520
    -2.8933  -2.8933  -0.0057  -0.0057   0.3750   0.3750   0.4738   0.4738
     2.1536   2.1536   2.4198   2.4198   6.5899   6.5900   7.2393   7.2394
     7.6261   7.6262   8.1366

          k = 0.1667-0.4969 0.2919 ( 22538 PWs)   bands (ev):

   -26.8657 -26.8657 -26.8616 -26.8616 -26.7382 -26.7382 -10.5546 -10.5546
   -10.5123 -10.5123 -10.4809 -10.4809 -10.4026 -10.4026 -10.3664 -10.3664
   -10.3520 -10.3520 -10.2071 -10.2071 -10.1809 -10.1809 -10.1546 -10.1546
    -2.8705  -2.8705  -0.1038  -0.1038   0.3904   0.3904   0.4415   0.4415
     2.2740   2.2740   2.4517   2.4517   6.6199   6.6199   7.4318   7.4319
     7.6255   7.6264   7.9290

          k = 0.1667-0.4969-0.2365 ( 22558 PWs)   bands (ev):

   -26.8663 -26.8663 -26.8610 -26.8610 -26.7382 -26.7382 -10.5597 -10.5597
   -10.5110 -10.5110 -10.4785 -10.4785 -10.4065 -10.4065 -10.3606 -10.3606
   -10.3508 -10.3508 -10.2092 -10.2092 -10.1744 -10.1744 -10.1604 -10.1604
    -2.8760  -2.8760  -0.0825  -0.0825   0.3688   0.3688   0.4702   0.4702
     2.2671   2.2671   2.4184   2.4184   6.6799   6.6799   7.2013   7.2015
     7.6310   7.6312   8.0041

          k = 0.1667-0.4969-0.0604 ( 22554 PWs)   bands (ev):

   -26.8675 -26.8675 -26.8597 -26.8597 -26.7383 -26.7383 -10.5775 -10.5775
   -10.5120 -10.5120 -10.4734 -10.4734 -10.4033 -10.4033 -10.3504 -10.3504
   -10.3365 -10.3365 -10.2219 -10.2219 -10.1793 -10.1793 -10.1561 -10.1561
    -2.8985  -2.8985   0.0089   0.0089   0.4163   0.4163   0.4480   0.4480
     2.1315   2.1315   2.4009   2.4009   6.6435   6.6435   7.0485   7.0486
     7.7197   7.7197   8.1681

          k = 0.3333 0.0000 0.2316 ( 22577 PWs)   bands (ev):

   -26.8723 -26.8665 -26.8604 -26.8580 -26.7385 -26.7353 -10.5555 -10.5552
   -10.5112 -10.5061 -10.4656 -10.4611 -10.4043 -10.3855 -10.3745 -10.3743
   -10.3606 -10.3512 -10.2074 -10.2067 -10.1981 -10.1905 -10.1539 -10.1512
    -3.0019  -2.8643  -0.0881  -0.0032   0.4052   0.4298   0.4609   0.4730
     2.2089   2.2970   2.3864   2.4973   6.4216   6.5664   7.3096   7.4190
     7.5520   7.6299   7.6859

          k = 0.3333 0.0000 0.4077 ( 22555 PWs)   bands (ev):

   -26.8713 -26.8671 -26.8603 -26.8584 -26.7381 -26.7357 -10.5632 -10.5397
   -10.5146 -10.5033 -10.4717 -10.4497 -10.3958 -10.3913 -10.3843 -10.3765
   -10.3590 -10.3576 -10.2073 -10.2037 -10.2006 -10.1978 -10.1558 -10.1413
    -2.9498  -2.9054  -0.0830  -0.0631   0.3779   0.4504   0.4538   0.4813
     2.3207   2.3465   2.3597   2.4360   6.4097   6.6598   7.2708   7.4196
     7.4954   7.5477   7.8080

          k = 0.3333 0.0000-0.1207 ( 22562 PWs)   bands (ev):

   -26.8750 -26.8629 -26.8623 -26.8567 -26.7403 -26.7338 -10.5701 -10.5524
   -10.5056 -10.5021 -10.4844 -10.4483 -10.4188 -10.3998 -10.3831 -10.3549
   -10.3491 -10.3273 -10.2163 -10.2035 -10.1979 -10.1939 -10.1636 -10.1404
    -3.0467  -2.8506   0.0536   0.0821   0.2655   0.4496   0.4772   0.5009
     2.1428   2.2457   2.3454   2.4463   6.3423   6.7115   7.1128   7.1890
     7.4525   7.6029   7.9606

          k = 0.3333 0.0000 0.0554 ( 22550 PWs)   bands (ev):

   -26.8754 -26.8637 -26.8613 -26.8565 -26.7405 -26.7336 -10.5664 -10.5615
   -10.5075 -10.5021 -10.4819 -10.4511 -10.4313 -10.3890 -10.3757 -10.3557
   -10.3493 -10.3227 -10.2180 -10.2053 -10.1955 -10.1821 -10.1688 -10.1472
    -3.0705  -2.8376   0.0558   0.1334   0.3013   0.4586   0.4616   0.4838
     2.0467   2.2608   2.2931   2.5024   6.3292   6.6399   6.9782   7.2758
     7.5374   7.6863   7.9097

          k = 0.3333 0.1656 0.2316 ( 22562 PWs)   bands (ev):

   -26.8710 -26.8656 -26.8607 -26.8583 -26.7391 -26.7363 -10.5741 -10.5461
   -10.5235 -10.5104 -10.4824 -10.4547 -10.4150 -10.3820 -10.3754 -10.3635
   -10.3446 -10.3379 -10.2196 -10.2006 -10.1958 -10.1849 -10.1591 -10.1477
    -2.9721  -2.8531  -0.0364   0.0154   0.3540   0.4245   0.4500   0.4766
     2.1594   2.2206   2.4046   2.4792   6.5710   6.7378   7.0575   7.2098
     7.4638   7.6715   7.8910

          k = 0.3333 0.1656 0.4077 ( 22560 PWs)   bands (ev):

   -26.8700 -26.8663 -26.8605 -26.8588 -26.7387 -26.7367 -10.5688 -10.5429
   -10.5199 -10.5162 -10.4770 -10.4597 -10.4046 -10.3954 -10.3778 -10.3638
   -10.3506 -10.3380 -10.2113 -10.2017 -10.1963 -10.1919 -10.1578 -10.1441
    -2.9256  -2.8886  -0.0418  -0.0286   0.3708   0.4243   0.4437   0.4504
     2.2192   2.2954   2.3794   2.4484   6.6006   6.7563   7.0740   7.3576
     7.4371   7.7304   7.8400

          k = 0.3333 0.1656-0.1207 ( 22546 PWs)   bands (ev):

   -26.8734 -26.8627 -26.8621 -26.8572 -26.7407 -26.7349 -10.5923 -10.5394
   -10.5269 -10.5001 -10.4870 -10.4560 -10.4296 -10.3807 -10.3672 -10.3563
   -10.3341 -10.3262 -10.2344 -10.2011 -10.1955 -10.1854 -10.1631 -10.1408
    -3.0113  -2.8434   0.0486   0.1055   0.2844   0.4199   0.4735   0.5136
     2.0764   2.2208   2.2963   2.4547   6.5115   6.7777   6.8626   6.9762
     7.7564   7.7688   7.8558

          k = 0.3333 0.1656 0.0554 ( 22560 PWs)   bands (ev):

   -26.8738 -26.8632 -26.8613 -26.8570 -26.7409 -26.7348 -10.5959 -10.5449
   -10.5270 -10.5006 -10.4795 -10.4585 -10.4374 -10.3729 -10.3671 -10.3512
   -10.3320 -10.3220 -10.2399 -10.2000 -10.1965 -10.1842 -10.1603 -10.1454
    -3.0329  -2.8326   0.0648   0.1276   0.3069   0.4244   0.4843   0.5099
     1.9946   2.1851   2.2939   2.4903   6.5184   6.6708   6.8075   7.0017
     7.6589   7.7773   7.9983

          k = 0.3333 0.3313 0.2316 ( 22533 PWs)   bands (ev):

   -26.8677 -26.8634 -26.8618 -26.8593 -26.7402 -26.7385 -10.5853 -10.5709
   -10.5418 -10.5114 -10.4862 -10.4474 -10.4291 -10.3980 -10.3541 -10.3475
   -10.3296 -10.3218 -10.2265 -10.1977 -10.1918 -10.1842 -10.1566 -10.1465
    -2.9046  -2.8361   0.0218   0.1101   0.2448   0.4169   0.4432   0.4684
     2.0590   2.0843   2.4228   2.4519   6.6421   6.7091   7.0207   7.4091
     7.5335   7.8583   8.0094

          k = 0.3333 0.3313 0.4077 ( 22537 PWs)   bands (ev):

   -26.8669 -26.8644 -26.8611 -26.8600 -26.7400 -26.7387 -10.5808 -10.5701
   -10.5293 -10.5070 -10.4895 -10.4617 -10.4254 -10.4138 -10.3535 -10.3484
   -10.3280 -10.3258 -10.2122 -10.1989 -10.1888 -10.1824 -10.1606 -10.1504
    -2.8747  -2.8550   0.0200   0.0705   0.2716   0.3844   0.4325   0.4541
     2.0852   2.1499   2.4025   2.4667   6.7579   6.8188   7.0728   7.2285
     7.6215   7.7226   7.8629

          k = 0.3333 0.3313-0.1207 ( 22536 PWs)   bands (ev):

   -26.8695 -26.8629 -26.8613 -26.8586 -26.7411 -26.7376 -10.6026 -10.5731
   -10.5435 -10.5201 -10.4640 -10.4485 -10.4413 -10.3684 -10.3473 -10.3401
   -10.3256 -10.3244 -10.2522 -10.2147 -10.1826 -10.1785 -10.1559 -10.1425
    -2.9308  -2.8364   0.0061   0.1643   0.2646   0.4485   0.4951   0.5166
     1.9609   2.0488   2.3305   2.4404   6.3850   6.5324   7.1022   7.3961
     7.6989   8.0479   8.1187

          k = 0.3333 0.3313 0.0554 ( 22537 PWs)   bands (ev):

   -26.8698 -26.8631 -26.8610 -26.8583 -26.7412 -26.7376 -10.6072 -10.5773
   -10.5437 -10.5223 -10.4635 -10.4529 -10.4335 -10.3505 -10.3441 -10.3411
   -10.3249 -10.3193 -10.2675 -10.2216 -10.1849 -10.1797 -10.1488 -10.1423
    -2.9459  -2.8321   0.0112   0.1544   0.3070   0.4577   0.5181   0.5305
     1.9007   2.0030   2.3315   2.4488   6.3291   6.4883   7.0512   7.3755
     7.7773   7.9937   8.2084

          k = 0.3333-0.4969 0.2316 ( 22532 PWs)   bands (ev):

   -26.8643 -26.8643 -26.8610 -26.8610 -26.7402 -26.7402 -10.5881 -10.5881
   -10.5322 -10.5322 -10.4661 -10.4661 -10.4160 -10.4160 -10.3377 -10.3377
   -10.3261 -10.3261 -10.2152 -10.2152 -10.1847 -10.1847 -10.1493 -10.1493
    -2.8486  -2.8486   0.0743   0.0743   0.3327   0.3327   0.4528   0.4528
     2.0140   2.0140   2.4349   2.4349   6.5644   6.5644   7.3267   7.3268
     7.8664   7.8664   8.1755

          k = 0.3333-0.4969 0.4077 ( 22522 PWs)   bands (ev):

   -26.8639 -26.8639 -26.8614 -26.8614 -26.7402 -26.7402 -10.5867 -10.5867
   -10.5158 -10.5158 -10.4780 -10.4780 -10.4283 -10.4283 -10.3357 -10.3357
   -10.3277 -10.3277 -10.2044 -10.2044 -10.1823 -10.1823 -10.1566 -10.1566
    -2.8430  -2.8430   0.0763   0.0763   0.2929   0.2929   0.4536   0.4536
     2.0485   2.0485   2.4442   2.4442   6.7131   6.7131   7.2328   7.2328
     7.7331   7.7333   8.0542

          k = 0.3333-0.4969-0.1207 ( 22530 PWs)   bands (ev):

   -26.8653 -26.8653 -26.8600 -26.8600 -26.7402 -26.7402 -10.5963 -10.5963
   -10.5413 -10.5413 -10.4607 -10.4607 -10.3950 -10.3950 -10.3340 -10.3340
   -10.3250 -10.3250 -10.2400 -10.2400 -10.1757 -10.1757 -10.1471 -10.1471
    -2.8611  -2.8611   0.0433   0.0433   0.4034   0.4034   0.5180   0.5180
     1.9308   1.9308   2.3906   2.3906   6.3309   6.3309   7.5336   7.5336
     7.9224   7.9225   8.1765

          k = 0.3333-0.4969 0.0554 ( 22556 PWs)   bands (ev):

   -26.8655 -26.8655 -26.8598 -26.8598 -26.7402 -26.7402 -10.6002 -10.6002
   -10.5432 -10.5432 -10.4640 -10.4640 -10.3768 -10.3768 -10.3343 -10.3343
   -10.3228 -10.3228 -10.2537 -10.2537 -10.1774 -10.1774 -10.1423 -10.1423
    -2.8665  -2.8665   0.0399   0.0399   0.4521   0.4521   0.5166   0.5166
     1.8835   1.8835   2.3875   2.3875   6.2689   6.2689   7.5393   7.5394
     7.9236   7.9237   8.3707

          k =-0.5000 0.0000-0.3473 ( 22574 PWs)   bands (ev):

   -26.8668 -26.8646 -26.8629 -26.8612 -26.7380 -26.7375 -10.5616 -10.5439
   -10.5065 -10.5000 -10.4694 -10.4475 -10.3993 -10.3986 -10.3893 -10.3797
   -10.3740 -10.3660 -10.2081 -10.2001 -10.1954 -10.1892 -10.1531 -10.1387
    -2.8888  -2.8651  -0.1939  -0.1717   0.4015   0.4330   0.4489   0.4653
     2.3458   2.3727   2.4372   2.5292   6.5136   6.5608   7.2091   7.2645
     7.7598   7.9506   8.0386

          k =-0.5000 0.0000-0.1712 ( 22561 PWs)   bands (ev):

   -26.8679 -26.8671 -26.8605 -26.8600 -26.7380 -26.7376 -10.5578 -10.5415
   -10.5180 -10.5088 -10.4797 -10.4686 -10.4015 -10.3928 -10.3826 -10.3670
   -10.3533 -10.3530 -10.2092 -10.2025 -10.1952 -10.1881 -10.1557 -10.1438
    -2.9035  -2.8869  -0.1104  -0.0757   0.3813   0.4337   0.4468   0.4554
     2.2537   2.3455   2.3882   2.4895   6.5837   6.5867   7.3097   7.4571
     7.5702   7.7484   7.7591

          k =-0.5000 0.0000-0.6996 ( 22530 PWs)   bands (ev):

   -26.8686 -26.8686 -26.8591 -26.8591 -26.7378 -26.7378 -10.5434 -10.5434
   -10.5304 -10.5304 -10.4778 -10.4778 -10.4016 -10.4016 -10.3707 -10.3707
   -10.3320 -10.3320 -10.2079 -10.2079 -10.1918 -10.1918 -10.1533 -10.1533
    -2.9129  -2.9129   0.0066   0.0066   0.3959   0.3959   0.4414   0.4414
     2.1927   2.1927   2.4381   2.4381   6.8421   6.8421   6.9487   6.9487
     7.5367   7.5368   7.9583

          k =-0.5000 0.1656-0.3473 ( 22548 PWs)   bands (ev):

   -26.8659 -26.8639 -26.8628 -26.8613 -26.7388 -26.7383 -10.5651 -10.5546
   -10.5207 -10.5168 -10.4741 -10.4580 -10.4043 -10.4017 -10.3722 -10.3649
   -10.3575 -10.3499 -10.2061 -10.1994 -10.1945 -10.1865 -10.1563 -10.1416
    -2.8756  -2.8542  -0.1148  -0.1048   0.3775   0.4122   0.4325   0.4516
     2.2462   2.3587   2.3715   2.4859   6.6327   6.6678   7.1084   7.4798
     7.7126   7.7173   7.8794

          k =-0.5000 0.1656-0.1712 ( 22542 PWs)   bands (ev):

   -26.8671 -26.8662 -26.8606 -26.8599 -26.7388 -26.7384 -10.5755 -10.5580
   -10.5232 -10.5153 -10.4902 -10.4538 -10.4040 -10.3963 -10.3639 -10.3520
   -10.3480 -10.3440 -10.2223 -10.2034 -10.1888 -10.1853 -10.1574 -10.1418
    -2.8890  -2.8740  -0.0567  -0.0239   0.3575   0.3938   0.4627   0.4845
     2.1982   2.2081   2.4015   2.4372   6.5936   6.6249   7.1226   7.3159
     7.6835   7.7089   7.9742

          k =-0.5000 0.1656-0.6996 ( 22554 PWs)   bands (ev):

   -26.8676 -26.8676 -26.8592 -26.8592 -26.7386 -26.7386 -10.5761 -10.5761
   -10.5184 -10.5184 -10.4750 -10.4750 -10.4028 -10.4028 -10.3504 -10.3504
   -10.3292 -10.3292 -10.2254 -10.2254 -10.1850 -10.1850 -10.1487 -10.1487
    -2.8976  -2.8976   0.0212   0.0212   0.4210   0.4210   0.4540   0.4540
     2.1045   2.1045   2.4048   2.4048   6.6207   6.6207   7.0340   7.0340
     7.7864   7.7871   8.1208

          k =-0.5000 0.3313-0.3473 ( 22522 PWs)   bands (ev):

   -26.8639 -26.8627 -26.8623 -26.8615 -26.7404 -26.7401 -10.5887 -10.5859
   -10.5206 -10.5126 -10.4794 -10.4709 -10.4307 -10.4292 -10.3365 -10.3346
   -10.3306 -10.3265 -10.2016 -10.1975 -10.1937 -10.1850 -10.1598 -10.1481
    -2.8470  -2.8337   0.0662   0.0885   0.3005   0.3202   0.4108   0.4397
     2.0187   2.1043   2.4117   2.4776   6.7862   6.8467   6.9670   7.1743
     7.7762   7.9467   8.0152

          k =-0.5000 0.3313-0.1712 ( 22515 PWs)   bands (ev):

   -26.8653 -26.8643 -26.8608 -26.8599 -26.7404 -26.7402 -10.5939 -10.5902
   -10.5480 -10.5296 -10.4740 -10.4484 -10.4144 -10.3953 -10.3453 -10.3296
   -10.3264 -10.3243 -10.2372 -10.2209 -10.1797 -10.1794 -10.1529 -10.1413
    -2.8585  -2.8491   0.0434   0.0815   0.3321   0.3834   0.4894   0.4996
     1.9578   1.9910   2.3943   2.4227   6.4249   6.4347   7.3569   7.5531
     7.7660   8.1052   8.1142

          k =-0.5000 0.3313-0.6996 ( 22520 PWs)   bands (ev):

   -26.8657 -26.8657 -26.8595 -26.8595 -26.7403 -26.7403 -10.6012 -10.6012
   -10.5435 -10.5435 -10.4648 -10.4648 -10.3782 -10.3782 -10.3282 -10.3282
   -10.3214 -10.3214 -10.2601 -10.2601 -10.1762 -10.1762 -10.1413 -10.1413
    -2.8669  -2.8669   0.0333   0.0333   0.4878   0.4878   0.5061   0.5061
     1.8713   1.8713   2.3788   2.3788   6.2449   6.2449   7.5070   7.5071
     8.0490   8.0493   8.3085

          k =-0.5000-0.4969-0.3473 ( 22544 PWs)   bands (ev):

   -26.8626 -26.8626 -26.8617 -26.8617 -26.7411 -26.7411 -10.6018 -10.6018
   -10.4992 -10.4992 -10.4888 -10.4888 -10.4446 -10.4446 -10.3202 -10.3202
   -10.3192 -10.3192 -10.1969 -10.1969 -10.1922 -10.1922 -10.1547 -10.1547
    -2.8278  -2.8278   0.2428   0.2428   0.2659   0.2659   0.3555   0.3555
     1.9364   1.9364   2.4545   2.4545   6.8132   6.8132   6.9846   6.9846
     8.0761   8.0762   8.2851

          k =-0.5000-0.4969-0.1712 ( 22526 PWs)   bands (ev):

   -26.8639 -26.8639 -26.8605 -26.8605 -26.7411 -26.7411 -10.6037 -10.6037
   -10.5446 -10.5446 -10.4617 -10.4617 -10.4060 -10.4060 -10.3220 -10.3220
   -10.3180 -10.3180 -10.2399 -10.2399 -10.1761 -10.1761 -10.1452 -10.1452
    -2.8398  -2.8398   0.0944   0.0944   0.4203   0.4203   0.4649   0.4649
     1.8461   1.8461   2.4099   2.4099   6.3168   6.3168   7.6162   7.6163
     8.0270   8.0270   8.3982

          k =-0.5000-0.4969-0.6996 ( 22540 PWs)   bands (ev):

   -26.8645 -26.8645 -26.8598 -26.8598 -26.7411 -26.7411 -10.6106 -10.6106
   -10.5522 -10.5522 -10.4713 -10.4713 -10.3348 -10.3348 -10.3347 -10.3347
   -10.3172 -10.3172 -10.2861 -10.2861 -10.1719 -10.1719 -10.1380 -10.1380
    -2.8516  -2.8516   0.0306   0.0306   0.5361   0.5361   0.5449   0.5449
     1.7335   1.7335   2.3722   2.3722   6.1035   6.1035   7.8214   7.8214
     8.0990   8.0991   8.6456

     the Fermi energy is     4.3064 ev

!    total energy              =    -771.38244907 Ry
     estimated scf accuracy    <          8.1E-09 Ry
     smearing contrib. (-TS)   =       0.00000000 Ry
     internal energy E=F+TS    =    -771.38244907 Ry

     The total energy is F=E-TS. E is the sum of the following terms:
     one-electron contribution =    -133.90684694 Ry
     hartree contribution      =      88.39564937 Ry
     xc contribution           =     -81.54537958 Ry
     ewald contribution        =    -242.48591671 Ry
     one-center paw contrib.   =    -401.83995522 Ry

     convergence has been achieved in   7 iterations

     Forces acting on atoms (cartesian axes, Ry/au):

     atom    1 type  3   force =     0.00006216   -0.00047132   -0.00005792
     atom    2 type  3   force =    -0.00006216    0.00047132    0.00005792
     atom    3 type  3   force =    -0.00006216   -0.00047132    0.00005792
     atom    4 type  3   force =     0.00006216    0.00047132   -0.00005792
     atom    5 type  3   force =    -0.00000000    0.00000000   -0.00000000
     atom    6 type  3   force =     0.00000000    0.00000000    0.00000000
     atom    7 type  2   force =    -0.00000000   -0.00000000    0.00000000
     atom    8 type  2   force =     0.00000000   -0.00000000    0.00000000
     atom    9 type  1   force =     0.00188258    0.00254203   -0.00043925
     atom   10 type  1   force =    -0.00188258   -0.00254203    0.00043925
     atom   11 type  1   force =    -0.00188258    0.00254203    0.00043925
     atom   12 type  1   force =     0.00188258   -0.00254203   -0.00043925
     atom   13 type  1   force =     0.00242393    0.00204674   -0.00049644
     atom   14 type  1   force =    -0.00242393   -0.00204674    0.00049644
     atom   15 type  1   force =    -0.00242393    0.00204674    0.00049644
     atom   16 type  1   force =     0.00242393   -0.00204674   -0.00049644
     atom   17 type  1   force =     0.00082554    0.00010884    0.00317783
     atom   18 type  1   force =    -0.00082554   -0.00010884   -0.00317783
     atom   19 type  1   force =    -0.00082554    0.00010884   -0.00317783
     atom   20 type  1   force =     0.00082554   -0.00010884    0.00317783

     Total force =     0.011231     Total SCF correction =     0.000085


     Computing stress (Cartesian axis) and pressure

          total   stress  (Ry/bohr**3)                   (kbar)     P=        7.93
   0.00005318   0.00000000   0.00000007            7.82        0.00        0.01
   0.00000000   0.00005346   0.00000000            0.00        7.86        0.00
   0.00000007   0.00000000   0.00005514            0.01        0.00        8.11


     Writing output data file ./K3AlH6_experimental.save/

     init_run     :    115.90s CPU     56.66s WALL (       1 calls)
     electrons    :   2643.88s CPU    806.39s WALL (       1 calls)
     forces       :     48.80s CPU     11.53s WALL (       1 calls)
     stress       :    475.70s CPU    111.42s WALL (       1 calls)

     Called by init_run:
     wfcinit      :    107.97s CPU     49.79s WALL (       1 calls)
     potinit      :      2.40s CPU      2.47s WALL (       1 calls)
     hinit0       :      3.09s CPU      3.10s WALL (       1 calls)

     Called by electrons:
     c_bands      :   2363.59s CPU    677.88s WALL (       7 calls)
     sum_band     :    260.20s CPU    113.61s WALL (       7 calls)
     v_of_rho     :      1.39s CPU      1.56s WALL (       8 calls)
     newd         :     15.32s CPU      9.25s WALL (       8 calls)
     PAW_pot      :      5.68s CPU      5.68s WALL (       8 calls)
     mix_rho      :      0.17s CPU      0.20s WALL (       7 calls)

     Called by c_bands:
     init_us_2    :     69.19s CPU     18.85s WALL (     952 calls)
     cegterg      :   2235.62s CPU    620.87s WALL (     392 calls)

     Called by *egterg:
     cdiaghg      :     39.32s CPU      7.21s WALL (    2565 calls)
     h_psi        :   1354.72s CPU    560.96s WALL (    2621 calls)
     s_psi        :    262.59s CPU     19.92s WALL (    2621 calls)
     g_psi        :     36.73s CPU      8.34s WALL (    2173 calls)

     Called by h_psi:
     h_psi:calbec :    191.77s CPU     17.09s WALL (    2621 calls)
     vloc_psi     :    814.96s CPU    511.37s WALL (    2621 calls)
     add_vuspsi   :    327.19s CPU     23.16s WALL (    2621 calls)

     General routines
     calbec       :    266.55s CPU     24.44s WALL (    3293 calls)
     fft          :      0.67s CPU      0.61s WALL (     127 calls)
     ffts         :      0.18s CPU      0.09s WALL (      15 calls)
     fftw         :    821.11s CPU    546.33s WALL (  117154 calls)
     interpolate  :      0.11s CPU      0.11s WALL (       8 calls)

     Parallel routines

     PWSCF        :  54m44.64s CPU  16m27.23s WALL


   This run was terminated on:  21:11:32   1Dec2023            

=------------------------------------------------------------------------------=
   JOB DONE.
=------------------------------------------------------------------------------=
