
     Program PWSCF v.6.7MaX starts on 15Nov2023 at 18:54:41 

     This program is part of the open-source Quantum ESPRESSO suite
     for quantum simulation of materials; please cite
         "P. Giannozzi et al., J. Phys.:Condens. Matter 21 395502 (2009);
         "P. Giannozzi et al., J. Phys.:Condens. Matter 29 465901 (2017);
          URL http://www.quantum-espresso.org", 
     in publications or presentations arising from this work. More details at
     http://www.quantum-espresso.org/quote

     Parallel version (MPI), running on     1 processors

     MPI processes distributed on     1 nodes
     Reading input from KAlH4.in

     Current dimensions of program PWSCF are:
     Max number of different atomic species (ntypx) = 10
     Max number of k-points (npk) =  40000
     Max angular momentum in pseudopotentials (lmaxx) =  3
     file Al.pbe-n-kjpaw_psl.1.0.0.UPF: wavefunction(s)  3S 3P renormalized
     file K.pbe-spn-kjpaw_psl.1.0.0.UPF: wavefunction(s)  3S renormalized

     IMPORTANT: XC functional enforced from input :
     Exchange-correlation= PBE
                           (   1   4   3   4   0   0   0)
     Any further DFT definition will be discarded
     Please, verify this is what you really want


     Subspace diagonalization in iterative solution of the eigenvalue problem:
     a serial algorithm will be used

     Message from routine setup:
     using ibrav=0 with symmetry is DISCOURAGED, use correct ibrav instead

     G-vector sticks info
     --------------------
     sticks:   dense  smooth     PW     G-vecs:    dense   smooth      PW
     Sum        5341    4277   1173               301629   216059   30815



     bravais-lattice index     =            0
     lattice parameter (alat)  =      16.5693  a.u.
     unit-cell volume          =    2461.0457 (a.u.)^3
     number of atoms/cell      =           24
     number of atomic types    =            3
     number of electrons       =        64.00
     number of Kohn-Sham states=           38
     kinetic-energy cutoff     =      75.0000  Ry
     charge density cutoff     =     375.0000  Ry
     scf convergence threshold =      1.0E-08
     mixing beta               =       0.7000
     number of iterations used =            8  plain     mixing
     Exchange-correlation= PBE
                           (   1   4   3   4   0   0   0)

     celldm(1)=  16.569251  celldm(2)=   0.000000  celldm(3)=   0.000000
     celldm(4)=   0.000000  celldm(5)=   0.000000  celldm(6)=   0.000000

     crystal axes: (cart. coord. in units of alat)
               a(1) = (   1.000000   0.000000   0.000000 )  
               a(2) = (   0.000000   0.652381   0.000000 )  
               a(3) = (   0.000000   0.000000   0.829296 )  

     reciprocal axes: (cart. coord. in units 2 pi/alat)
               b(1) = (  1.000000  0.000000  0.000000 )  
               b(2) = (  0.000000  1.532846  0.000000 )  
               b(3) = (  0.000000  0.000000  1.205842 )  


     PseudoPot. # 1 for Al read from file:
     ../../pseudopotentials/Al.pbe-n-kjpaw_psl.1.0.0.UPF
     MD5 check sum: cfc449ca30b5f3223ec38ddd88ac046d
     Pseudo is Projector augmented-wave + core cor, Zval =  3.0
     Generated using "atomic" code by A. Dal Corso  v.5.1
     Shape of augmentation charge: PSQ
     Using radial grid of 1135 points,  6 beta functions with: 
                l(1) =   0
                l(2) =   0
                l(3) =   1
                l(4) =   1
                l(5) =   2
                l(6) =   2
     Q(r) pseudized with 0 coefficients 


     PseudoPot. # 2 for H  read from file:
     ../../pseudopotentials/H.pbe-rrkjus_psl.1.0.0.UPF
     MD5 check sum: f52b6d4d1c606e5624b1dc7b2218f220
     Pseudo is Ultrasoft, Zval =  1.0
     Generated using "atomic" code by A. Dal Corso  v.5.1
     Using radial grid of  929 points,  2 beta functions with: 
                l(1) =   0
                l(2) =   0
     Q(r) pseudized with 0 coefficients 


     PseudoPot. # 3 for K  read from file:
     ../../pseudopotentials/K.pbe-spn-kjpaw_psl.1.0.0.UPF
     MD5 check sum: 7d58810084cac21f60fbe77ea2b688fd
     Pseudo is Projector augmented-wave + core cor, Zval =  9.0
     Generated using "atomic" code by A. Dal Corso  v.5.1
     Shape of augmentation charge: PSQ
     Using radial grid of 1165 points,  6 beta functions with: 
                l(1) =   0
                l(2) =   0
                l(3) =   1
                l(4) =   1
                l(5) =   2
                l(6) =   2
     Q(r) pseudized with 0 coefficients 


     atomic species   valence    mass     pseudopotential
        Al             3.00    26.98100     Al( 1.00)
        H              1.00     1.00750     H ( 1.00)
        K              9.00    39.09830     K ( 1.00)

      8 Sym. Ops., with inversion, found ( 6 have fractional translation)



   Cartesian axes

     site n.     atom                  positions (alat units)
         1           K   tau(   1) = (   0.1764569   0.1630954   0.1371422  )
         2           K   tau(   2) = (   0.3235431   0.4892861   0.5517901  )
         3           K   tau(   3) = (   0.8235431   0.4892861   0.6921536  )
         4           K   tau(   4) = (   0.6764569   0.1630954   0.2775057  )
         5           Al  tau(   5) = (   0.0687938   0.1630954   0.5634634  )
         6           Al  tau(   6) = (   0.4312062   0.4892861   0.1488155  )
         7           Al  tau(   7) = (   0.9312062   0.4892861   0.2658324  )
         8           Al  tau(   8) = (   0.5687938   0.1630954   0.6804803  )
         9           H   tau(   9) = (   0.0778535   0.0134636   0.6723922  )
        10           H   tau(  10) = (   0.4221465   0.3396543   0.2577444  )
        11           H   tau(  11) = (   0.4221465   0.6389178   0.2577444  )
        12           H   tau(  12) = (   0.9221465   0.3396543   0.1569035  )
        13           H   tau(  13) = (   0.9221465   0.6389178   0.1569035  )
        14           H   tau(  14) = (   0.5778535   0.3127271   0.5715514  )
        15           H   tau(  15) = (   0.5778535   0.0134636   0.5715514  )
        16           H   tau(  16) = (   0.0778535   0.3127271   0.6723922  )
        17           H   tau(  17) = (   0.0900178   0.4892861   0.3598955  )
        18           H   tau(  18) = (   0.4099822   0.1630954   0.7745434  )
        19           H   tau(  19) = (   0.9099822   0.1630954   0.4694003  )
        20           H   tau(  20) = (   0.5900178   0.4892861   0.0547524  )
        21           H   tau(  21) = (   0.2159413   0.1630954   0.4514109  )
        22           H   tau(  22) = (   0.2840587   0.4892861   0.0367630  )
        23           H   tau(  23) = (   0.7840587   0.4892861   0.3778849  )
        24           H   tau(  24) = (   0.7159413   0.1630954   0.7925328  )

     number of k points=    36  Marzari-Vanderbilt smearing, width (Ry)=  0.0050
                       cart. coord. in units 2pi/alat
        k(    1) = (   0.0000000   0.0000000   0.0000000), wk =   0.0166667
        k(    2) = (   0.0000000   0.0000000   0.2411685), wk =   0.0333333
        k(    3) = (   0.0000000   0.0000000   0.4823369), wk =   0.0333333
        k(    4) = (   0.0000000   0.2554743   0.0000000), wk =   0.0333333
        k(    5) = (   0.0000000   0.2554743   0.2411685), wk =   0.0666667
        k(    6) = (   0.0000000   0.2554743   0.4823369), wk =   0.0666667
        k(    7) = (   0.0000000   0.5109485   0.0000000), wk =   0.0333333
        k(    8) = (   0.0000000   0.5109485   0.2411685), wk =   0.0666667
        k(    9) = (   0.0000000   0.5109485   0.4823369), wk =   0.0666667
        k(   10) = (   0.0000000  -0.7664228   0.0000000), wk =   0.0166667
        k(   11) = (   0.0000000  -0.7664228   0.2411685), wk =   0.0333333
        k(   12) = (   0.0000000  -0.7664228   0.4823369), wk =   0.0333333
        k(   13) = (   0.2500000   0.0000000   0.0000000), wk =   0.0333333
        k(   14) = (   0.2500000   0.0000000   0.2411685), wk =   0.0666667
        k(   15) = (   0.2500000   0.0000000   0.4823369), wk =   0.0666667
        k(   16) = (   0.2500000   0.2554743   0.0000000), wk =   0.0666667
        k(   17) = (   0.2500000   0.2554743   0.2411685), wk =   0.1333333
        k(   18) = (   0.2500000   0.2554743   0.4823369), wk =   0.1333333
        k(   19) = (   0.2500000   0.5109485   0.0000000), wk =   0.0666667
        k(   20) = (   0.2500000   0.5109485   0.2411685), wk =   0.1333333
        k(   21) = (   0.2500000   0.5109485   0.4823369), wk =   0.1333333
        k(   22) = (   0.2500000  -0.7664228   0.0000000), wk =   0.0333333
        k(   23) = (   0.2500000  -0.7664228   0.2411685), wk =   0.0666667
        k(   24) = (   0.2500000  -0.7664228   0.4823369), wk =   0.0666667
        k(   25) = (  -0.5000000   0.0000000   0.0000000), wk =   0.0166667
        k(   26) = (  -0.5000000   0.0000000   0.2411685), wk =   0.0333333
        k(   27) = (  -0.5000000   0.0000000   0.4823369), wk =   0.0333333
        k(   28) = (  -0.5000000   0.2554743   0.0000000), wk =   0.0333333
        k(   29) = (  -0.5000000   0.2554743   0.2411685), wk =   0.0666667
        k(   30) = (  -0.5000000   0.2554743   0.4823369), wk =   0.0666667
        k(   31) = (  -0.5000000   0.5109485   0.0000000), wk =   0.0333333
        k(   32) = (  -0.5000000   0.5109485   0.2411685), wk =   0.0666667
        k(   33) = (  -0.5000000   0.5109485   0.4823369), wk =   0.0666667
        k(   34) = (  -0.5000000  -0.7664228   0.0000000), wk =   0.0166667
        k(   35) = (  -0.5000000  -0.7664228   0.2411685), wk =   0.0333333
        k(   36) = (  -0.5000000  -0.7664228   0.4823369), wk =   0.0333333

     Dense  grid:   301629 G-vectors     FFT dimensions: ( 108,  72,  90)

     Smooth grid:   216059 G-vectors     FFT dimensions: (  96,  60,  80)

     Estimated max dynamical RAM per process >       1.87 GB

     Check: negative core charge=   -0.000001

     Initial potential from superposition of free atoms

     starting charge   63.91536, renormalised to   64.00000
     Starting wfcs are   64 randomized atomic wfcs
     Checking if some PAW data can be deallocated... 

     total cpu time spent up to now is       32.2 secs

     Self-consistent Calculation

     iteration #  1     ecut=    75.00 Ry     beta= 0.70
     Davidson diagonalization with overlap
     ethr =  1.00E-02,  avg # of iterations =  4.1

     total cpu time spent up to now is       95.9 secs

     total energy              =    -628.95201793 Ry
     estimated scf accuracy    <       1.26985914 Ry

     iteration #  2     ecut=    75.00 Ry     beta= 0.70
     Davidson diagonalization with overlap
     ethr =  1.98E-03,  avg # of iterations =  2.0

     total cpu time spent up to now is      151.9 secs

     total energy              =    -629.06662010 Ry
     estimated scf accuracy    <       0.01378815 Ry

     iteration #  3     ecut=    75.00 Ry     beta= 0.70
     Davidson diagonalization with overlap
     c_bands:  1 eigenvalues not converged
     c_bands:  1 eigenvalues not converged
     c_bands:  1 eigenvalues not converged
     ethr =  2.15E-05,  avg # of iterations = 13.1

     total cpu time spent up to now is      245.3 secs

     total energy              =    -629.07285948 Ry
     estimated scf accuracy    <       0.00073554 Ry

     iteration #  4     ecut=    75.00 Ry     beta= 0.70
     Davidson diagonalization with overlap
     c_bands:  1 eigenvalues not converged
     c_bands:  1 eigenvalues not converged
     ethr =  1.15E-06,  avg # of iterations =  7.1

     total cpu time spent up to now is      318.7 secs

     total energy              =    -629.07321074 Ry
     estimated scf accuracy    <       0.00004745 Ry

     iteration #  5     ecut=    75.00 Ry     beta= 0.70
     Davidson diagonalization with overlap
     ethr =  7.41E-08,  avg # of iterations =  2.9

     total cpu time spent up to now is      377.9 secs

     total energy              =    -629.07322328 Ry
     estimated scf accuracy    <       0.00000341 Ry

     iteration #  6     ecut=    75.00 Ry     beta= 0.70
     Davidson diagonalization with overlap
     ethr =  5.33E-09,  avg # of iterations =  3.8

     total cpu time spent up to now is      441.1 secs

     total energy              =    -629.07322436 Ry
     estimated scf accuracy    <       0.00000007 Ry

     iteration #  7     ecut=    75.00 Ry     beta= 0.70
     Davidson diagonalization with overlap
     ethr =  1.05E-10,  avg # of iterations =  4.8

     total cpu time spent up to now is      518.4 secs

     End of self-consistent calculation

          k = 0.0000 0.0000 0.0000 ( 26965 PWs)   bands (ev):

   -28.3456 -28.3424 -28.3423 -28.3411 -11.8933 -11.8815 -11.8776 -11.8750
   -11.8744 -11.8561 -11.8479 -11.8466 -11.8330 -11.8243 -11.8183 -11.8053
    -5.3428  -4.5847  -4.2583  -4.0301  -1.8541  -1.8234  -1.2446  -1.2405
    -1.2281  -1.2041  -1.2020  -0.9070  -0.8250  -0.7553  -0.7375  -0.4934
     4.5766   5.0982   5.2569   5.3736   5.4326   5.5095

          k = 0.0000 0.0000 0.2412 ( 26960 PWs)   bands (ev):

   -28.3453 -28.3428 -28.3421 -28.3411 -11.8961 -11.8796 -11.8788 -11.8740
   -11.8661 -11.8547 -11.8531 -11.8455 -11.8375 -11.8278 -11.8165 -11.8060
    -5.2683  -4.6316  -4.2634  -4.0481  -1.8846  -1.7413  -1.4708  -1.1973
    -1.1708  -1.1294  -1.0600  -0.8735  -0.8704  -0.8647  -0.7878  -0.5313
     4.7475   4.9184   5.1130   5.4183   5.4922   5.5445

          k = 0.0000 0.0000 0.4823 ( 26960 PWs)   bands (ev):

   -28.3446 -28.3436 -28.3418 -28.3414 -11.8958 -11.8889 -11.8715 -11.8638
   -11.8620 -11.8513 -11.8512 -11.8498 -11.8474 -11.8374 -11.8122 -11.8083
    -5.0685  -4.8162  -4.2083  -4.1123  -1.8614  -1.7045  -1.5078  -1.1933
    -1.1180  -1.0914  -0.9842  -0.9653  -0.9487  -0.9036  -0.7732  -0.6372
     4.7598   4.8358   5.1595   5.4978   5.7610   5.7929

          k = 0.0000 0.2555 0.0000 ( 26958 PWs)   bands (ev):

   -28.3454 -28.3426 -28.3422 -28.3411 -11.8923 -11.8834 -11.8768 -11.8749
   -11.8704 -11.8553 -11.8540 -11.8491 -11.8350 -11.8264 -11.8173 -11.8059
    -5.2532  -4.5454  -4.2851  -4.0571  -1.8768  -1.7598  -1.5349  -1.3708
    -1.1927  -1.1445  -1.1215  -0.9098  -0.8241  -0.7871  -0.7317  -0.5459
     4.7772   4.9645   5.2253   5.3200   5.6524   5.7351

          k = 0.0000 0.2555 0.2412 ( 27007 PWs)   bands (ev):

   -28.3451 -28.3429 -28.3421 -28.3412 -11.8933 -11.8857 -11.8802 -11.8682
   -11.8667 -11.8619 -11.8510 -11.8484 -11.8366 -11.8285 -11.8157 -11.8066
    -5.1821  -4.5904  -4.2776  -4.0717  -1.8692  -1.8092  -1.4760  -1.3551
    -1.3033  -1.1566  -1.1043  -0.9728  -0.8654  -0.7191  -0.6496  -0.5792
     4.8755   4.9833   5.0846   5.4155   5.6511   5.6937

          k = 0.0000 0.2555 0.4823 ( 27013 PWs)   bands (ev):

   -28.3445 -28.3436 -28.3418 -28.3414 -11.8926 -11.8873 -11.8834 -11.8742
   -11.8614 -11.8541 -11.8534 -11.8429 -11.8422 -11.8341 -11.8122 -11.8088
    -4.9933  -4.7596  -4.2146  -4.1265  -1.8081  -1.7385  -1.6545  -1.5063
    -1.2611  -1.1865  -1.0865  -0.9241  -0.8302  -0.7287  -0.6235  -0.6086
     4.8921   4.9138   5.2357   5.6297   5.7100   5.9179

          k = 0.0000 0.5109 0.0000 ( 27000 PWs)   bands (ev):

   -28.3447 -28.3431 -28.3419 -28.3413 -11.8900 -11.8843 -11.8816 -11.8684
   -11.8673 -11.8617 -11.8546 -11.8510 -11.8413 -11.8327 -11.8145 -11.8079
    -5.0087  -4.4363  -4.4147  -4.1451  -1.8921  -1.7419  -1.6114  -1.5751
    -1.2928  -1.0873  -1.0159  -1.0116  -0.9891  -0.7891  -0.6808  -0.6583
     4.8794   5.3152   5.3781   5.4396   5.9070   6.0207

          k = 0.0000 0.5109 0.2412 ( 26994 PWs)   bands (ev):

   -28.3446 -28.3433 -28.3419 -28.3414 -11.8913 -11.8879 -11.8828 -11.8768
   -11.8680 -11.8583 -11.8545 -11.8436 -11.8411 -11.8308 -11.8137 -11.8085
    -4.9494  -4.5055  -4.3448  -4.1507  -1.9617  -1.8529  -1.5894  -1.5486
    -1.3096  -1.2838  -1.1368  -0.8725  -0.8459  -0.7837  -0.6784  -0.5437
     5.0068   5.2863   5.3260   5.4001   5.8038   5.8274

          k = 0.0000 0.5109 0.4823 ( 27005 PWs)   bands (ev):

   -28.3442 -28.3437 -28.3417 -28.3415 -11.8953 -11.8901 -11.8849 -11.8837
   -11.8700 -11.8628 -11.8460 -11.8400 -11.8351 -11.8307 -11.8119 -11.8100
    -4.7985  -4.6279  -4.2546  -4.1826  -2.0528  -1.9156  -1.6670  -1.5665
    -1.4330  -1.3968  -1.0266  -0.9044  -0.8087  -0.7107  -0.5490  -0.4765
     5.1123   5.1514   5.4614   5.5694   5.8172   5.8803

          k = 0.0000-0.7664 0.0000 ( 27022 PWs)   bands (ev):

   -28.3439 -28.3439 -28.3416 -28.3416 -11.8866 -11.8866 -11.8792 -11.8792
   -11.8612 -11.8612 -11.8510 -11.8510 -11.8422 -11.8422 -11.8111 -11.8111
    -4.6868  -4.6868  -4.2863  -4.2863  -1.8061  -1.8061  -1.6379  -1.6379
    -1.3168  -1.3168  -0.8976  -0.8976  -0.8756  -0.8756  -0.7687  -0.7687
     5.1241   5.1241   5.7643   5.7643   5.9162   5.9162

          k = 0.0000-0.7664 0.2412 ( 27018 PWs)   bands (ev):

   -28.3439 -28.3439 -28.3416 -28.3416 -11.8893 -11.8893 -11.8843 -11.8843
   -11.8619 -11.8619 -11.8495 -11.8495 -11.8361 -11.8361 -11.8111 -11.8111
    -4.6558  -4.6558  -4.2798  -4.2798  -1.9001  -1.9001  -1.7452  -1.7452
    -1.1674  -1.1674  -1.0797  -1.0797  -0.8344  -0.8344  -0.6099  -0.6099
     5.2494   5.2494   5.4575   5.4575   5.9658   5.9660

          k = 0.0000-0.7664 0.4823 ( 26988 PWs)   bands (ev):

   -28.3439 -28.3439 -28.3416 -28.3416 -11.8983 -11.8983 -11.8809 -11.8809
   -11.8707 -11.8707 -11.8418 -11.8418 -11.8309 -11.8309 -11.8111 -11.8111
    -4.6008  -4.6008  -4.2720  -4.2720  -2.1254  -2.1254  -1.6192  -1.6192
    -1.4182  -1.4182  -0.9956  -0.9956  -0.7381  -0.7381  -0.4981  -0.4981
     5.1899   5.1899   5.7435   5.7435   5.8670   5.8670

          k = 0.2500 0.0000 0.0000 ( 26958 PWs)   bands (ev):

   -28.3452 -28.3429 -28.3422 -28.3412 -11.8845 -11.8825 -11.8784 -11.8776
   -11.8611 -11.8586 -11.8472 -11.8456 -11.8351 -11.8259 -11.8245 -11.8130
    -5.2588  -4.7417  -4.2172  -4.0400  -1.8763  -1.6004  -1.4820  -1.2247
    -1.2077  -1.1453  -1.0558  -0.9698  -0.8124  -0.7546  -0.7505  -0.5711
     4.6827   4.9184   5.0010   5.3251   5.4001   5.5192

          k = 0.2500 0.0000 0.2412 ( 26965 PWs)   bands (ev):

   -28.3449 -28.3428 -28.3423 -28.3413 -11.8879 -11.8830 -11.8759 -11.8675
   -11.8616 -11.8601 -11.8504 -11.8458 -11.8387 -11.8319 -11.8213 -11.8121
    -5.1889  -4.7330  -4.2663  -4.0762  -1.8374  -1.6192  -1.4482  -1.1934
    -1.1764  -1.1747  -1.0123  -0.9586  -0.8536  -0.8259  -0.7993  -0.6133
     4.8478   4.8529   5.0641   5.2880   5.3985   5.4115

          k = 0.2500 0.0000 0.4823 ( 27010 PWs)   bands (ev):

   -28.3442 -28.3434 -28.3421 -28.3417 -11.8884 -11.8840 -11.8694 -11.8618
   -11.8609 -11.8542 -11.8523 -11.8495 -11.8487 -11.8417 -11.8164 -11.8128
    -5.0064  -4.8047  -4.2855  -4.1806  -1.7481  -1.6029  -1.4445  -1.1945
    -1.1134  -1.0944  -1.0336  -0.9807  -0.9432  -0.9110  -0.8234  -0.7228
     4.8301   4.9628   5.2373   5.4374   5.4958   5.5777

          k = 0.2500 0.2555 0.0000 ( 26956 PWs)   bands (ev):

   -28.3450 -28.3427 -28.3423 -28.3413 -11.8827 -11.8817 -11.8803 -11.8736
   -11.8617 -11.8607 -11.8531 -11.8457 -11.8372 -11.8264 -11.8247 -11.8132
    -5.1739  -4.6899  -4.2463  -4.0725  -1.8442  -1.6198  -1.5124  -1.4092
    -1.2869  -1.1759  -1.0208  -0.8613  -0.8222  -0.7983  -0.7670  -0.6249
     4.8293   4.8464   5.1899   5.1988   5.6174   5.6628

          k = 0.2500 0.2555 0.2412 ( 26994 PWs)   bands (ev):

   -28.3447 -28.3428 -28.3424 -28.3414 -11.8868 -11.8849 -11.8738 -11.8710
   -11.8624 -11.8613 -11.8532 -11.8474 -11.8379 -11.8302 -11.8214 -11.8130
    -5.1073  -4.6819  -4.2795  -4.1012  -1.8622  -1.6323  -1.5100  -1.3443
    -1.3262  -1.1588  -1.0464  -0.9744  -0.8705  -0.7518  -0.7093  -0.6155
     4.8958   4.9273   5.1108   5.2420   5.5347   5.7139

          k = 0.2500 0.2555 0.4823 ( 27014 PWs)   bands (ev):

   -28.3441 -28.3434 -28.3421 -28.3417 -11.8874 -11.8868 -11.8742 -11.8706
   -11.8645 -11.8584 -11.8507 -11.8448 -11.8423 -11.8365 -11.8170 -11.8139
    -4.9353  -4.7485  -4.2820  -4.1874  -1.8066  -1.6559  -1.5563  -1.4017
    -1.2988  -1.1940  -1.1043  -0.9559  -0.8365  -0.7274  -0.7139  -0.6453
     4.9442   4.9876   5.2194   5.4785   5.5048   5.7326

          k = 0.2500 0.5109 0.0000 ( 26987 PWs)   bands (ev):

   -28.3444 -28.3428 -28.3424 -28.3416 -11.8823 -11.8812 -11.8789 -11.8669
   -11.8650 -11.8640 -11.8602 -11.8450 -11.8438 -11.8323 -11.8215 -11.8146
    -4.9422  -4.5476  -4.3759  -4.1798  -1.8148  -1.7059  -1.5671  -1.4879
    -1.3445  -1.2096  -1.0586  -1.0066  -0.8588  -0.7797  -0.7723  -0.7004
     4.8346   5.2732   5.3122   5.4662   5.7182   5.8064

          k = 0.2500 0.5109 0.2412 ( 26997 PWs)   bands (ev):

   -28.3442 -28.3430 -28.3423 -28.3416 -11.8905 -11.8818 -11.8757 -11.8735
   -11.8712 -11.8615 -11.8515 -11.8454 -11.8400 -11.8308 -11.8205 -11.8152
    -4.8871  -4.5484  -4.3641  -4.1900  -1.9512  -1.7370  -1.5613  -1.5276
    -1.3859  -1.2602  -1.0924  -0.9192  -0.8566  -0.7663  -0.7169  -0.5957
     4.9281   5.0652   5.4342   5.4948   5.7138   5.8111

          k = 0.2500 0.5109 0.4823 ( 27009 PWs)   bands (ev):

   -28.3439 -28.3434 -28.3421 -28.3418 -11.8949 -11.8904 -11.8768 -11.8765
   -11.8715 -11.8642 -11.8445 -11.8399 -11.8361 -11.8313 -11.8183 -11.8165
    -4.7504  -4.6100  -4.3074  -4.2325  -2.0346  -1.9028  -1.5915  -1.5690
    -1.4565  -1.3187  -1.0309  -0.9302  -0.7884  -0.7039  -0.6130  -0.5372
     5.0255   5.0830   5.3296   5.5426   5.8293   6.0575

          k = 0.2500-0.7664 0.0000 ( 26984 PWs)   bands (ev):

   -28.3436 -28.3436 -28.3419 -28.3419 -11.8808 -11.8808 -11.8769 -11.8769
   -11.8621 -11.8621 -11.8540 -11.8540 -11.8401 -11.8401 -11.8177 -11.8177
    -4.6369  -4.6369  -4.3561  -4.3561  -1.7320  -1.7320  -1.6196  -1.6196
    -1.2825  -1.2825  -1.0168  -1.0168  -0.8906  -0.8906  -0.7461  -0.7461
     5.0620   5.0620   5.6331   5.6331   6.1266   6.1267

          k = 0.2500-0.7664 0.2412 ( 27006 PWs)   bands (ev):

   -28.3436 -28.3436 -28.3419 -28.3419 -11.8883 -11.8883 -11.8774 -11.8774
   -11.8646 -11.8646 -11.8482 -11.8482 -11.8359 -11.8359 -11.8180 -11.8180
    -4.6086  -4.6086  -4.3446  -4.3446  -1.8677  -1.8677  -1.6928  -1.6928
    -1.2170  -1.2170  -1.0688  -1.0688  -0.8159  -0.8159  -0.6610  -0.6610
     5.0668   5.0668   5.5932   5.5935   5.9457   5.9458

          k = 0.2500-0.7664 0.4823 ( 26984 PWs)   bands (ev):

   -28.3436 -28.3436 -28.3419 -28.3419 -11.8968 -11.8968 -11.8784 -11.8784
   -11.8683 -11.8683 -11.8408 -11.8408 -11.8310 -11.8310 -11.8186 -11.8186
    -4.5589  -4.5589  -4.3276  -4.3276  -2.0779  -2.0779  -1.6912  -1.6912
    -1.3465  -1.3465  -0.9716  -0.9716  -0.7273  -0.7273  -0.5706  -0.5706
     5.0873   5.0873   5.6011   5.6011   5.9501   5.9504

          k =-0.5000 0.0000 0.0000 ( 27002 PWs)   bands (ev):

   -28.3441 -28.3441 -28.3416 -28.3416 -11.8832 -11.8832 -11.8704 -11.8704
   -11.8567 -11.8567 -11.8458 -11.8458 -11.8374 -11.8374 -11.8238 -11.8238
    -5.0306  -5.0306  -4.1192  -4.1192  -1.7322  -1.7322  -1.2478  -1.2478
    -1.2163  -1.2163  -1.0092  -1.0092  -0.7816  -0.7816  -0.7060  -0.7060
     4.8222   4.8222   4.9694   4.9694   5.3653   5.3655

          k =-0.5000 0.0000 0.2412 ( 26982 PWs)   bands (ev):

   -28.3439 -28.3439 -28.3418 -28.3418 -11.8818 -11.8818 -11.8685 -11.8685
   -11.8554 -11.8554 -11.8476 -11.8476 -11.8440 -11.8440 -11.8211 -11.8211
    -4.9775  -4.9775  -4.1806  -4.1806  -1.6868  -1.6868  -1.2337  -1.2337
    -1.1841  -1.1841  -1.0347  -1.0347  -0.8266  -0.8266  -0.7562  -0.7562
     4.8664   4.8664   5.1117   5.1117   5.2723   5.2724

          k =-0.5000 0.0000 0.4823 ( 26976 PWs)   bands (ev):

   -28.3434 -28.3434 -28.3423 -28.3423 -11.8781 -11.8781 -11.8646 -11.8646
   -11.8543 -11.8543 -11.8528 -11.8528 -11.8515 -11.8515 -11.8189 -11.8189
    -4.8676  -4.8676  -4.3050  -4.3050  -1.5732  -1.5732  -1.2534  -1.2534
    -1.1031  -1.1031  -1.0584  -1.0584  -0.9280  -0.9280  -0.8542  -0.8542
     4.9878   4.9878   5.3814   5.3815   5.4051   5.4051

          k =-0.5000 0.2555 0.0000 ( 26940 PWs)   bands (ev):

   -28.3439 -28.3439 -28.3418 -28.3418 -11.8800 -11.8800 -11.8723 -11.8723
   -11.8572 -11.8572 -11.8512 -11.8512 -11.8353 -11.8353 -11.8249 -11.8249
    -4.9592  -4.9592  -4.1527  -4.1527  -1.6792  -1.6792  -1.4808  -1.4808
    -1.1365  -1.1365  -1.0222  -1.0222  -0.7766  -0.7766  -0.7482  -0.7482
     4.8148   4.8148   5.1604   5.1605   5.4055   5.4055

          k =-0.5000 0.2555 0.2412 ( 26980 PWs)   bands (ev):

   -28.3437 -28.3437 -28.3419 -28.3419 -11.8824 -11.8824 -11.8674 -11.8674
   -11.8599 -11.8599 -11.8516 -11.8516 -11.8380 -11.8380 -11.8226 -11.8226
    -4.9090  -4.9090  -4.1995  -4.1995  -1.7179  -1.7179  -1.3998  -1.3998
    -1.1856  -1.1856  -1.0065  -1.0065  -0.8797  -0.8797  -0.6831  -0.6831
     4.8874   4.8874   5.1936   5.1937   5.3962   5.3962

          k =-0.5000 0.2555 0.4823 ( 26988 PWs)   bands (ev):

   -28.3433 -28.3433 -28.3423 -28.3423 -11.8831 -11.8831 -11.8668 -11.8668
   -11.8599 -11.8599 -11.8516 -11.8516 -11.8420 -11.8420 -11.8203 -11.8203
    -4.8062  -4.8062  -4.2988  -4.2988  -1.7212  -1.7212  -1.3270  -1.3270
    -1.2352  -1.2352  -1.0993  -1.0993  -0.8290  -0.8290  -0.7083  -0.7083
     5.0669   5.0669   5.1794   5.1795   5.5741   5.5745

          k =-0.5000 0.5109 0.0000 ( 27024 PWs)   bands (ev):

   -28.3434 -28.3434 -28.3422 -28.3422 -11.8754 -11.8754 -11.8711 -11.8711
   -11.8656 -11.8656 -11.8545 -11.8545 -11.8338 -11.8338 -11.8277 -11.8277
    -4.7643  -4.7643  -4.2782  -4.2782  -1.6755  -1.6755  -1.5157  -1.5157
    -1.3223  -1.3223  -0.9357  -0.9357  -0.9292  -0.9292  -0.7562  -0.7562
     4.9532   4.9533   5.4035   5.4036   5.6510   5.6510

          k =-0.5000 0.5109 0.2412 ( 27010 PWs)   bands (ev):

   -28.3433 -28.3433 -28.3423 -28.3423 -11.8837 -11.8837 -11.8725 -11.8725
   -11.8615 -11.8615 -11.8508 -11.8508 -11.8340 -11.8340 -11.8264 -11.8264
    -4.7238  -4.7238  -4.2901  -4.2901  -1.8191  -1.8191  -1.5090  -1.5090
    -1.3025  -1.3025  -1.0031  -1.0031  -0.8520  -0.8520  -0.6820  -0.6820
     4.9660   4.9660   5.3626   5.3626   5.7157   5.7159

          k =-0.5000 0.5109 0.4823 ( 27012 PWs)   bands (ev):

   -28.3431 -28.3431 -28.3425 -28.3425 -11.8892 -11.8892 -11.8805 -11.8805
   -11.8531 -11.8531 -11.8486 -11.8486 -11.8351 -11.8351 -11.8242 -11.8242
    -4.6439  -4.6439  -4.3242  -4.3242  -1.9356  -1.9356  -1.6516  -1.6516
    -1.1797  -1.1797  -1.0755  -1.0755  -0.7574  -0.7574  -0.6240  -0.6240
     5.0744   5.0744   5.2299   5.2299   6.0151   6.0156

          k =-0.5000-0.7664 0.0000 ( 27024 PWs)   bands (ev):

   -28.3428 -28.3428 -28.3428 -28.3428 -11.8735 -11.8735 -11.8735 -11.8735
   -11.8612 -11.8612 -11.8612 -11.8612 -11.8312 -11.8312 -11.8312 -11.8312
    -4.5060  -4.5060  -4.5060  -4.5060  -1.6238  -1.6238  -1.6238  -1.6238
    -1.1919  -1.1919  -1.1919  -1.1919  -0.8212  -0.8212  -0.8212  -0.8212
     5.2161   5.2161   5.2161   5.2161   6.3429   6.3430

          k =-0.5000-0.7664 0.2412 ( 27016 PWs)   bands (ev):

   -28.3428 -28.3428 -28.3428 -28.3428 -11.8813 -11.8813 -11.8813 -11.8813
   -11.8543 -11.8543 -11.8543 -11.8543 -11.8306 -11.8306 -11.8306 -11.8306
    -4.4851  -4.4851  -4.4851  -4.4851  -1.7530  -1.7530  -1.7530  -1.7530
    -1.1404  -1.1404  -1.1404  -1.1404  -0.7621  -0.7621  -0.7621  -0.7621
     5.1905   5.1905   5.1905   5.1905   6.2783   6.2783

          k =-0.5000-0.7664 0.4823 ( 27008 PWs)   bands (ev):

   -28.3428 -28.3428 -28.3428 -28.3428 -11.8889 -11.8889 -11.8889 -11.8889
   -11.8485 -11.8485 -11.8485 -11.8485 -11.8296 -11.8296 -11.8296 -11.8296
    -4.4500  -4.4500  -4.4500  -4.4500  -1.9142  -1.9142  -1.9142  -1.9142
    -1.0924  -1.0924  -1.0924  -1.0924  -0.6817  -0.6817  -0.6817  -0.6817
     5.2083   5.2083   5.2084   5.2085   6.1675   6.1676

     the Fermi energy is     2.1089 ev

!    total energy              =    -629.07322442 Ry
     estimated scf accuracy    <          5.4E-09 Ry
     smearing contrib. (-TS)   =       0.00000000 Ry
     internal energy E=F+TS    =    -629.07322442 Ry

     The total energy is F=E-TS. E is the sum of the following terms:
     one-electron contribution =    -109.51285446 Ry
     hartree contribution      =      71.33389841 Ry
     xc contribution           =     -66.61695619 Ry
     ewald contribution        =    -163.80231520 Ry
     one-center paw contrib.   =    -360.47499698 Ry

     convergence has been achieved in   7 iterations

     Forces acting on atoms (cartesian axes, Ry/au):

     atom    1 type  3   force =     0.00005943    0.00000000   -0.00015658
     atom    2 type  3   force =    -0.00005943    0.00000000   -0.00015658
     atom    3 type  3   force =    -0.00005943    0.00000000    0.00015658
     atom    4 type  3   force =     0.00005943    0.00000000    0.00015658
     atom    5 type  1   force =    -0.00035214    0.00000000   -0.00158242
     atom    6 type  1   force =     0.00035214   -0.00000000   -0.00158242
     atom    7 type  1   force =     0.00035214    0.00000000    0.00158242
     atom    8 type  1   force =    -0.00035214    0.00000000    0.00158242
     atom    9 type  2   force =     0.00065597   -0.00385642    0.00345985
     atom   10 type  2   force =    -0.00065597   -0.00385642    0.00345985
     atom   11 type  2   force =    -0.00065597    0.00385642    0.00345985
     atom   12 type  2   force =    -0.00065597   -0.00385642   -0.00345985
     atom   13 type  2   force =    -0.00065597    0.00385642   -0.00345985
     atom   14 type  2   force =     0.00065597    0.00385642   -0.00345985
     atom   15 type  2   force =     0.00065597   -0.00385642   -0.00345985
     atom   16 type  2   force =     0.00065597    0.00385642    0.00345985
     atom   17 type  2   force =     0.00404822    0.00000000    0.00190441
     atom   18 type  2   force =    -0.00404822    0.00000000    0.00190441
     atom   19 type  2   force =    -0.00404822    0.00000000   -0.00190441
     atom   20 type  2   force =     0.00404822   -0.00000000   -0.00190441
     atom   21 type  2   force =     0.00380818    0.00000000   -0.00311204
     atom   22 type  2   force =    -0.00380818    0.00000000   -0.00311204
     atom   23 type  2   force =    -0.00380818    0.00000000    0.00311204
     atom   24 type  2   force =     0.00380818    0.00000000    0.00311204

     Total force =     0.020140     Total SCF correction =     0.000058


     Computing stress (Cartesian axis) and pressure

          total   stress  (Ry/bohr**3)                   (kbar)     P=        9.33
   0.00006270   0.00000000   0.00000000            9.22        0.00        0.00
   0.00000000   0.00006317   0.00000000            0.00        9.29        0.00
   0.00000000   0.00000000   0.00006437            0.00        0.00        9.47


     Writing output data file ./KAlH4_exploring.save/

     init_run     :     77.61s CPU     32.03s WALL (       1 calls)
     electrons    :   1930.45s CPU    486.31s WALL (       1 calls)
     forces       :     40.16s CPU      9.02s WALL (       1 calls)
     stress       :    273.53s CPU     79.38s WALL (       1 calls)

     Called by init_run:
     wfcinit      :     70.79s CPU     26.38s WALL (       1 calls)
     potinit      :      1.94s CPU      2.00s WALL (       1 calls)
     hinit0       :      2.17s CPU      2.19s WALL (       1 calls)

     Called by electrons:
     c_bands      :   1723.59s CPU    404.53s WALL (       7 calls)
     sum_band     :    184.06s CPU     65.12s WALL (       7 calls)
     v_of_rho     :      1.63s CPU      1.78s WALL (       8 calls)
     newd         :     18.17s CPU     10.93s WALL (       8 calls)
     PAW_pot      :      5.70s CPU      5.70s WALL (       8 calls)
     mix_rho      :      0.23s CPU      0.25s WALL (       7 calls)

     Called by c_bands:
     init_us_2    :     56.40s CPU     15.57s WALL (     612 calls)
     cegterg      :   1632.38s CPU    363.01s WALL (     252 calls)

     Called by *egterg:
     cdiaghg      :     21.74s CPU      4.25s WALL (    1610 calls)
     h_psi        :    903.04s CPU    295.44s WALL (    1646 calls)
     s_psi        :    243.36s CPU     18.83s WALL (    1646 calls)
     g_psi        :     27.27s CPU      6.38s WALL (    1358 calls)

     Called by h_psi:
     h_psi:calbec :    160.45s CPU     14.09s WALL (    1646 calls)
     vloc_psi     :    465.35s CPU    255.89s WALL (    1646 calls)
     add_vuspsi   :    264.01s CPU     19.48s WALL (    1646 calls)

     General routines
     calbec       :    225.04s CPU     20.48s WALL (    2078 calls)
     fft          :      0.95s CPU      0.92s WALL (     127 calls)
     ffts         :      0.34s CPU      0.14s WALL (      15 calls)
     fftw         :    447.09s CPU    262.83s WALL (   71008 calls)
     interpolate  :      0.16s CPU      0.16s WALL (       8 calls)

     Parallel routines

     PWSCF        :  38m42.03s CPU  10m 7.66s WALL


   This run was terminated on:  19: 4:48  15Nov2023            

=------------------------------------------------------------------------------=
   JOB DONE.
=------------------------------------------------------------------------------=
