
     Program PWSCF v.6.7MaX starts on 15Nov2023 at 18:52:35 

     This program is part of the open-source Quantum ESPRESSO suite
     for quantum simulation of materials; please cite
         "P. Giannozzi et al., J. Phys.:Condens. Matter 21 395502 (2009);
         "P. Giannozzi et al., J. Phys.:Condens. Matter 29 465901 (2017);
          URL http://www.quantum-espresso.org", 
     in publications or presentations arising from this work. More details at
     http://www.quantum-espresso.org/quote

     Parallel version (MPI), running on     1 processors

     MPI processes distributed on     1 nodes
     Reading input from KH.in

     Current dimensions of program PWSCF are:
     Max number of different atomic species (ntypx) = 10
     Max number of k-points (npk) =  40000
     Max angular momentum in pseudopotentials (lmaxx) =  3
     Message from routine volume:
     axis vectors are left-handed
     file K.pbe-spn-kjpaw_psl.1.0.0.UPF: wavefunction(s)  3S renormalized

     IMPORTANT: XC functional enforced from input :
     Exchange-correlation= PBE
                           (   1   4   3   4   0   0   0)
     Any further DFT definition will be discarded
     Please, verify this is what you really want


     Subspace diagonalization in iterative solution of the eigenvalue problem:
     a serial algorithm will be used

     Message from routine setup:
     using ibrav=0 with symmetry is DISCOURAGED, use correct ibrav instead

     G-vector sticks info
     --------------------
     sticks:   dense  smooth     PW     G-vecs:    dense   smooth      PW
     Sum        1495    1189    349                37917    26933    4285



     bravais-lattice index     =            0
     lattice parameter (alat)  =      10.7195  a.u.
     unit-cell volume          =     307.9358 (a.u.)^3
     number of atoms/cell      =            2
     number of atomic types    =            2
     number of electrons       =        10.00
     number of Kohn-Sham states=            9
     kinetic-energy cutoff     =      75.0000  Ry
     charge density cutoff     =     375.0000  Ry
     scf convergence threshold =      1.0E-08
     mixing beta               =       0.7000
     number of iterations used =            8  plain     mixing
     Exchange-correlation= PBE
                           (   1   4   3   4   0   0   0)

     celldm(1)=  10.719471  celldm(2)=   0.000000  celldm(3)=   0.000000
     celldm(4)=   0.000000  celldm(5)=   0.000000  celldm(6)=   0.000000

     crystal axes: (cart. coord. in units of alat)
               a(1) = (   0.500000   0.500000   0.000000 )  
               a(2) = (   0.500000   0.000000   0.500000 )  
               a(3) = (   0.000000   0.500000   0.500000 )  

     reciprocal axes: (cart. coord. in units 2 pi/alat)
               b(1) = (  1.000000  1.000000 -1.000000 )  
               b(2) = (  1.000000 -1.000000  1.000000 )  
               b(3) = ( -1.000000  1.000000  1.000000 )  


     PseudoPot. # 1 for K  read from file:
     ../../pseudopotentials/K.pbe-spn-kjpaw_psl.1.0.0.UPF
     MD5 check sum: 7d58810084cac21f60fbe77ea2b688fd
     Pseudo is Projector augmented-wave + core cor, Zval =  9.0
     Generated using "atomic" code by A. Dal Corso  v.5.1
     Shape of augmentation charge: PSQ
     Using radial grid of 1165 points,  6 beta functions with: 
                l(1) =   0
                l(2) =   0
                l(3) =   1
                l(4) =   1
                l(5) =   2
                l(6) =   2
     Q(r) pseudized with 0 coefficients 


     PseudoPot. # 2 for H  read from file:
     ../../pseudopotentials/H.pbe-rrkjus_psl.1.0.0.UPF
     MD5 check sum: f52b6d4d1c606e5624b1dc7b2218f220
     Pseudo is Ultrasoft, Zval =  1.0
     Generated using "atomic" code by A. Dal Corso  v.5.1
     Using radial grid of  929 points,  2 beta functions with: 
                l(1) =   0
                l(2) =   0
     Q(r) pseudized with 0 coefficients 


     atomic species   valence    mass     pseudopotential
        K              9.00    39.09830     K ( 1.00)
        H              1.00     1.00750     H ( 1.00)

     48 Sym. Ops., with inversion, found



   Cartesian axes

     site n.     atom                  positions (alat units)
         1           K   tau(   1) = (   0.0000000   0.0000000   0.0000000  )
         2           H   tau(   2) = (   0.5000000   0.5000000   0.5000000  )

     number of k points=    16  Marzari-Vanderbilt smearing, width (Ry)=  0.0050
                       cart. coord. in units 2pi/alat
        k(    1) = (   0.0000000   0.0000000   0.0000000), wk =   0.0092593
        k(    2) = (  -0.1666667   0.1666667   0.1666667), wk =   0.0740741
        k(    3) = (  -0.3333333   0.3333333   0.3333333), wk =   0.0740741
        k(    4) = (   0.5000000  -0.5000000  -0.5000000), wk =   0.0370370
        k(    5) = (   0.0000000   0.0000000   0.3333333), wk =   0.0555556
        k(    6) = (  -0.1666667   0.1666667   0.5000000), wk =   0.2222222
        k(    7) = (   0.6666667  -0.6666667  -0.3333333), wk =   0.2222222
        k(    8) = (   0.5000000  -0.5000000  -0.1666667), wk =   0.2222222
        k(    9) = (   0.3333333  -0.3333333   0.0000000), wk =   0.1111111
        k(   10) = (   0.0000000   0.0000000   0.6666667), wk =   0.0555556
        k(   11) = (   0.8333333  -0.8333333  -0.1666667), wk =   0.2222222
        k(   12) = (   0.6666667  -0.6666667  -0.0000000), wk =   0.1111111
        k(   13) = (   0.0000000   0.0000000  -1.0000000), wk =   0.0277778
        k(   14) = (   1.0000000  -0.6666667  -0.3333333), wk =   0.2222222
        k(   15) = (   0.8333333  -0.5000000  -0.1666667), wk =   0.2222222
        k(   16) = (   0.0000000   0.3333333  -1.0000000), wk =   0.1111111

     Dense  grid:    37917 G-vectors     FFT dimensions: (  48,  48,  48)

     Smooth grid:    26933 G-vectors     FFT dimensions: (  45,  45,  45)

     Estimated max dynamical RAM per process >     152.75 MB

     Check: negative core charge=   -0.000002

     Initial potential from superposition of free atoms

     starting charge    9.98116, renormalised to   10.00000
     Starting wfcs are    9 randomized atomic wfcs
     Checking if some PAW data can be deallocated... 

     total cpu time spent up to now is        1.0 secs

     Self-consistent Calculation

     iteration #  1     ecut=    75.00 Ry     beta= 0.70
     Davidson diagonalization with overlap
     ethr =  1.00E-02,  avg # of iterations =  7.4

     total cpu time spent up to now is        2.6 secs

     total energy              =    -114.17698151 Ry
     estimated scf accuracy    <       0.13774724 Ry

     iteration #  2     ecut=    75.00 Ry     beta= 0.70
     Davidson diagonalization with overlap
     ethr =  1.38E-03,  avg # of iterations =  2.4

     total cpu time spent up to now is        3.7 secs

     total energy              =    -114.20587564 Ry
     estimated scf accuracy    <       0.00639323 Ry

     iteration #  3     ecut=    75.00 Ry     beta= 0.70
     Davidson diagonalization with overlap
     ethr =  6.39E-05,  avg # of iterations =  5.9

     total cpu time spent up to now is        5.1 secs

     total energy              =    -114.20715159 Ry
     estimated scf accuracy    <       0.00018406 Ry

     iteration #  4     ecut=    75.00 Ry     beta= 0.70
     Davidson diagonalization with overlap
     c_bands:  1 eigenvalues not converged
     c_bands:  1 eigenvalues not converged
     ethr =  1.84E-06,  avg # of iterations =  8.2

     total cpu time spent up to now is        6.6 secs

     total energy              =    -114.20719196 Ry
     estimated scf accuracy    <       0.00000501 Ry

     iteration #  5     ecut=    75.00 Ry     beta= 0.70
     Davidson diagonalization with overlap
     ethr =  5.01E-08,  avg # of iterations =  2.4

     total cpu time spent up to now is        7.8 secs

     total energy              =    -114.20719391 Ry
     estimated scf accuracy    <       0.00000014 Ry

     iteration #  6     ecut=    75.00 Ry     beta= 0.70
     Davidson diagonalization with overlap
     ethr =  1.36E-09,  avg # of iterations =  2.7

     total cpu time spent up to now is        9.2 secs

     End of self-consistent calculation

          k = 0.0000 0.0000 0.0000 (  3383 PWs)   bands (ev):

   -27.4897 -10.8409 -10.8409 -10.8409  -0.3690   9.2492   9.2492   9.2492
     9.4676

          k =-0.1667 0.1667 0.1667 (  3383 PWs)   bands (ev):

   -27.4816 -10.9280 -10.8504 -10.8504   0.0048   7.9790   9.3425   9.3425
     9.3758

          k =-0.3333 0.3333 0.3333 (  3386 PWs)   bands (ev):

   -27.4654 -11.0950 -10.8693 -10.8693   0.9117   5.9840   8.9331   8.9331
     9.7679

          k = 0.5000-0.5000-0.5000 (  3354 PWs)   bands (ev):

   -27.4573 -11.1752 -10.8787 -10.8787   1.5478   4.9842   8.6689   8.6689
    10.4207

          k = 0.0000 0.0000 0.3333 (  3375 PWs)   bands (ev):

   -27.4790 -10.9250 -10.8684 -10.8684   0.0982   8.1234   8.4500   9.4307
     9.4307

          k =-0.1667 0.1667 0.5000 (  3382 PWs)   bands (ev):

   -27.4655 -11.0445 -10.8923 -10.8915   0.7385   6.6976   7.9259   9.3803
    10.1139

          k = 0.6667-0.6667-0.3333 (  3361 PWs)   bands (ev):

   -27.4547 -11.1371 -10.9257 -10.8967   1.4238   5.5327   7.8445   9.0200
    10.7243

          k = 0.5000-0.5000-0.1667 (  3382 PWs)   bands (ev):

   -27.4574 -11.1132 -10.9367 -10.8790   1.2863   5.7784   7.7051   9.0230
    10.9205

          k = 0.3333-0.3333 0.0000 (  3393 PWs)   bands (ev):

   -27.4709 -11.0088 -10.9005 -10.8558   0.5256   7.1667   7.8547   9.5162
     9.8977

          k = 0.0000 0.0000 0.6667 (  3399 PWs)   bands (ev):

   -27.4576 -11.0694 -10.9229 -10.9229   0.8903   6.8402   7.3989  10.1458
    10.1459

          k = 0.8333-0.8333-0.1667 (  3377 PWs)   bands (ev):

   -27.4496 -11.1039 -10.9725 -10.9324   1.2145   6.6147   7.1272  10.0048
    10.3050

          k = 0.6667-0.6667-0.0000 (  3370 PWs)   bands (ev):

   -27.4495 -11.0604 -11.0460 -10.9106   1.4359   6.2810   6.9567   9.4439
    10.7424

          k = 0.0000 0.0000-1.0000 (  3378 PWs)   bands (ev):

   -27.4470 -11.1310 -10.9501 -10.9501   1.1205   6.9526   6.9993  11.1971
    11.1976

          k = 1.0000-0.6667-0.3333 (  3384 PWs)   bands (ev):

   -27.4548 -11.0829 -10.9643 -10.9071   1.1919   6.4280   7.1788   9.2990
    10.6323

          k = 0.8333-0.5000-0.1667 (  3360 PWs)   bands (ev):

   -27.4494 -11.0898 -11.0014 -10.9257   1.4362   6.1841   7.1783   9.0380
    11.1812

          k = 0.0000 0.3333-1.0000 (  3358 PWs)   bands (ev):

   -27.4469 -11.0864 -10.9959 -10.9585   1.3243   6.9045   6.9199   8.9503
    11.7128

     the Fermi energy is     1.9802 ev

!    total energy              =    -114.20719400 Ry
     estimated scf accuracy    <          1.5E-09 Ry
     smearing contrib. (-TS)   =       0.00000000 Ry
     internal energy E=F+TS    =    -114.20719400 Ry

     The total energy is F=E-TS. E is the sum of the following terms:
     one-electron contribution =     -24.88068466 Ry
     hartree contribution      =      14.95572826 Ry
     xc contribution           =     -11.96117780 Ry
     ewald contribution        =     -36.90236819 Ry
     one-center paw contrib.   =     -55.41869160 Ry

     convergence has been achieved in   6 iterations

     Forces acting on atoms (cartesian axes, Ry/au):

     atom    1 type  1   force =     0.00000000    0.00000000    0.00000000
     atom    2 type  2   force =     0.00000000    0.00000000    0.00000000

     Total force =     0.000000     Total SCF correction =     0.000000


     Computing stress (Cartesian axis) and pressure

          total   stress  (Ry/bohr**3)                   (kbar)     P=        1.58
   0.00001073  -0.00000000  -0.00000000            1.58       -0.00       -0.00
  -0.00000000   0.00001073  -0.00000000           -0.00        1.58       -0.00
  -0.00000000  -0.00000000   0.00001073           -0.00       -0.00        1.58


     Writing output data file ./KH_experimental.save/

     init_run     :      2.06s CPU      0.90s WALL (       1 calls)
     electrons    :     29.50s CPU      8.25s WALL (       1 calls)
     forces       :      0.87s CPU      0.21s WALL (       1 calls)
     stress       :      2.96s CPU      0.99s WALL (       1 calls)

     Called by init_run:
     wfcinit      :      1.25s CPU      0.31s WALL (       1 calls)
     potinit      :      0.12s CPU      0.13s WALL (       1 calls)
     hinit0       :      0.56s CPU      0.34s WALL (       1 calls)

     Called by electrons:
     c_bands      :     21.98s CPU      5.55s WALL (       6 calls)
     sum_band     :      5.62s CPU      1.45s WALL (       6 calls)
     v_of_rho     :      0.42s CPU      0.23s WALL (       7 calls)
     newd         :      0.89s CPU      0.55s WALL (       7 calls)
     PAW_pot      :      0.60s CPU      0.61s WALL (       7 calls)
     mix_rho      :      0.12s CPU      0.03s WALL (       6 calls)

     Called by c_bands:
     init_us_2    :      0.79s CPU      0.19s WALL (     240 calls)
     cegterg      :     20.36s CPU      5.15s WALL (      96 calls)

     Called by *egterg:
     cdiaghg      :      0.23s CPU      0.05s WALL (     560 calls)
     h_psi        :     19.70s CPU      5.01s WALL (     576 calls)
     s_psi        :      0.18s CPU      0.05s WALL (     576 calls)
     g_psi        :      0.20s CPU      0.04s WALL (     464 calls)

     Called by h_psi:
     h_psi:calbec :      0.51s CPU      0.19s WALL (     576 calls)
     vloc_psi     :     18.74s CPU      4.68s WALL (     576 calls)
     add_vuspsi   :      0.36s CPU      0.13s WALL (     576 calls)

     General routines
     calbec       :      0.61s CPU      0.21s WALL (     752 calls)
     fft          :      0.22s CPU      0.13s WALL (     114 calls)
     ffts         :      0.02s CPU      0.01s WALL (      13 calls)
     fftw         :     17.80s CPU      4.52s WALL (    6240 calls)
     interpolate  :      0.01s CPU      0.01s WALL (       7 calls)

     Parallel routines

     PWSCF        :     35.58s CPU     10.47s WALL


   This run was terminated on:  18:52:45  15Nov2023            

=------------------------------------------------------------------------------=
   JOB DONE.
=------------------------------------------------------------------------------=
