
     Program PWSCF v.6.7MaX starts on 15Nov2023 at 19: 6:18 

     This program is part of the open-source Quantum ESPRESSO suite
     for quantum simulation of materials; please cite
         "P. Giannozzi et al., J. Phys.:Condens. Matter 21 395502 (2009);
         "P. Giannozzi et al., J. Phys.:Condens. Matter 29 465901 (2017);
          URL http://www.quantum-espresso.org", 
     in publications or presentations arising from this work. More details at
     http://www.quantum-espresso.org/quote

     Parallel version (MPI), running on     1 processors

     MPI processes distributed on     1 nodes
     Reading input from LiAlH4.in

     Current dimensions of program PWSCF are:
     Max number of different atomic species (ntypx) = 10
     Max number of k-points (npk) =  40000
     Max angular momentum in pseudopotentials (lmaxx) =  3
     file Al.pbe-n-kjpaw_psl.1.0.0.UPF: wavefunction(s)  3S 3P renormalized

     IMPORTANT: XC functional enforced from input :
     Exchange-correlation= PBE
                           (   1   4   3   4   0   0   0)
     Any further DFT definition will be discarded
     Please, verify this is what you really want


     Subspace diagonalization in iterative solution of the eigenvalue problem:
     a serial algorithm will be used

     Message from routine setup:
     using ibrav=0 with symmetry is DISCOURAGED, use correct ibrav instead

     G-vector sticks info
     --------------------
     sticks:   dense  smooth     PW     G-vecs:    dense   smooth      PW
     Sum        4059    3243    921               230085   164591   24747



     bravais-lattice index     =            0
     lattice parameter (alat)  =       9.1877  a.u.
     unit-cell volume          =    1875.8956 (a.u.)^3
     number of atoms/cell      =           24
     number of atomic types    =            3
     number of electrons       =        40.00
     number of Kohn-Sham states=           24
     kinetic-energy cutoff     =      75.0000  Ry
     charge density cutoff     =     375.0000  Ry
     scf convergence threshold =      1.0E-08
     mixing beta               =       0.7000
     number of iterations used =            8  plain     mixing
     Exchange-correlation= PBE
                           (   1   4   3   4   0   0   0)

     celldm(1)=   9.187678  celldm(2)=   0.000000  celldm(3)=   0.000000
     celldm(4)=   0.000000  celldm(5)=   0.000000  celldm(6)=   0.000000

     crystal axes: (cart. coord. in units of alat)
               a(1) = (   1.000000   0.000000   0.000000 )  
               a(2) = (   0.000000   1.609388   0.000000 )  
               a(3) = (  -0.601271   0.000000   1.502901 )  

     reciprocal axes: (cart. coord. in units 2 pi/alat)
               b(1) = (  1.000000 -0.000000  0.400074 )  
               b(2) = (  0.000000  0.621354 -0.000000 )  
               b(3) = (  0.000000  0.000000  0.665380 )  


     PseudoPot. # 1 for Li read from file:
     ../../pseudopotentials/li_pbe_v1.4.uspp.F.UPF
     MD5 check sum: e912e257baa3777c20ea3d68f190483c
     Pseudo is Ultrasoft, Zval =  3.0
     Generated by new atomic code, or converted to UPF format
     Using radial grid of  751 points,  5 beta functions with: 
                l(1) =   0
                l(2) =   0
                l(3) =   0
                l(4) =   1
                l(5) =   1
     Q(r) pseudized with 10 coefficients,  rinner =    1.150   1.150   1.150


     PseudoPot. # 2 for Al read from file:
     ../../pseudopotentials/Al.pbe-n-kjpaw_psl.1.0.0.UPF
     MD5 check sum: cfc449ca30b5f3223ec38ddd88ac046d
     Pseudo is Projector augmented-wave + core cor, Zval =  3.0
     Generated using "atomic" code by A. Dal Corso  v.5.1
     Shape of augmentation charge: PSQ
     Using radial grid of 1135 points,  6 beta functions with: 
                l(1) =   0
                l(2) =   0
                l(3) =   1
                l(4) =   1
                l(5) =   2
                l(6) =   2
     Q(r) pseudized with 0 coefficients 


     PseudoPot. # 3 for H  read from file:
     ../../pseudopotentials/H.pbe-rrkjus_psl.1.0.0.UPF
     MD5 check sum: f52b6d4d1c606e5624b1dc7b2218f220
     Pseudo is Ultrasoft, Zval =  1.0
     Generated using "atomic" code by A. Dal Corso  v.5.1
     Using radial grid of  929 points,  2 beta functions with: 
                l(1) =   0
                l(2) =   0
     Q(r) pseudized with 0 coefficients 


     atomic species   valence    mass     pseudopotential
        Li             3.00     6.96750     Li( 1.00)
        Al             3.00    26.98100     Al( 1.00)
        H              1.00     1.00750     H ( 1.00)

      4 Sym. Ops., with inversion, found ( 2 have fractional translation)



   Cartesian axes

     site n.     atom                  positions (alat units)
         1           Al  tau(   1) = (   0.0791786   0.3253540   1.4011698  )
         2           Al  tau(   2) = (   0.3195499   1.2840344   0.1017314  )
         3           Al  tau(   3) = (   0.0189142   1.1300482   0.8531820  )
         4           Al  tau(   4) = (   0.3798143   0.4793402   0.6497192  )
         5           Li  tau(   5) = (   0.8236907   0.8613930   0.2639996  )
         6           Li  tau(   6) = (  -0.4249621   0.7479955   1.2389016  )
         7           Li  tau(   7) = (  -0.1243264   0.0566988   0.4874510  )
         8           Li  tau(   8) = (   0.5230549   1.5526897   1.0154502  )
         9           H   tau(   9) = (   0.2228722   0.1593938   1.1486824  )
        10           H   tau(  10) = (   0.1758563   1.4499946   0.3542188  )
        11           H   tau(  11) = (  -0.1247794   0.9640880   1.1056694  )
        12           H   tau(  12) = (   0.5235079   0.6453004   0.3972318  )
        13           H   tau(  13) = (   0.6251457   1.1844777   0.1918003  )
        14           H   tau(  14) = (  -0.2264172   0.4249107   1.3111010  )
        15           H   tau(  15) = (   0.0742185   0.3797835   0.5596504  )
        16           H   tau(  16) = (   0.3245100   1.2296049   0.9432509  )
        17           H   tau(  17) = (   0.6695228   0.1329194   0.1716614  )
        18           H   tau(  18) = (  -0.2707942   1.4764690   1.3312398  )
        19           H   tau(  19) = (   0.0298415   0.9376136   0.5797892  )
        20           H   tau(  20) = (   0.3688871   0.6717748   0.9231120  )
        21           H   tau(  21) = (   0.5665305   0.2059856   0.7180411  )
        22           H   tau(  22) = (  -0.1678020   1.4034028   0.7848601  )
        23           H   tau(  23) = (   0.1328337   1.0106798   0.0334095  )
        24           H   tau(  24) = (   0.2658948   0.5987086   1.4694917  )

     number of k points=    56  Marzari-Vanderbilt smearing, width (Ry)=  0.0050
                       cart. coord. in units 2pi/alat
        k(    1) = (   0.0000000   0.0000000   0.0000000), wk =   0.0138889
        k(    2) = (   0.0000000   0.0000000   0.1108966), wk =   0.0277778
        k(    3) = (   0.0000000   0.0000000   0.2217932), wk =   0.0277778
        k(    4) = (   0.0000000   0.0000000  -0.3326899), wk =   0.0138889
        k(    5) = (   0.0000000   0.1035590   0.0000000), wk =   0.0277778
        k(    6) = (   0.0000000   0.1035590   0.1108966), wk =   0.0555556
        k(    7) = (   0.0000000   0.1035590   0.2217932), wk =   0.0555556
        k(    8) = (   0.0000000   0.1035590  -0.3326899), wk =   0.0277778
        k(    9) = (   0.0000000   0.2071180   0.0000000), wk =   0.0277778
        k(   10) = (   0.0000000   0.2071180   0.1108966), wk =   0.0555556
        k(   11) = (   0.0000000   0.2071180   0.2217932), wk =   0.0555556
        k(   12) = (   0.0000000   0.2071180  -0.3326899), wk =   0.0277778
        k(   13) = (   0.0000000  -0.3106770   0.0000000), wk =   0.0138889
        k(   14) = (   0.0000000  -0.3106770   0.1108966), wk =   0.0277778
        k(   15) = (   0.0000000  -0.3106770   0.2217932), wk =   0.0277778
        k(   16) = (   0.0000000  -0.3106770  -0.3326899), wk =   0.0138889
        k(   17) = (   0.2500000   0.0000000   0.1000185), wk =   0.0277778
        k(   18) = (   0.2500000   0.0000000   0.2109151), wk =   0.0277778
        k(   19) = (   0.2500000   0.0000000   0.3218117), wk =   0.0277778
        k(   20) = (   0.2500000   0.0000000  -0.2326714), wk =   0.0277778
        k(   21) = (   0.2500000   0.0000000  -0.1217748), wk =   0.0277778
        k(   22) = (   0.2500000   0.0000000  -0.0108782), wk =   0.0277778
        k(   23) = (   0.2500000   0.1035590   0.1000185), wk =   0.0555556
        k(   24) = (   0.2500000   0.1035590   0.2109151), wk =   0.0555556
        k(   25) = (   0.2500000   0.1035590   0.3218117), wk =   0.0555556
        k(   26) = (   0.2500000   0.1035590  -0.2326714), wk =   0.0555556
        k(   27) = (   0.2500000   0.1035590  -0.1217748), wk =   0.0555556
        k(   28) = (   0.2500000   0.1035590  -0.0108782), wk =   0.0555556
        k(   29) = (   0.2500000   0.2071180   0.1000185), wk =   0.0555556
        k(   30) = (   0.2500000   0.2071180   0.2109151), wk =   0.0555556
        k(   31) = (   0.2500000   0.2071180   0.3218117), wk =   0.0555556
        k(   32) = (   0.2500000   0.2071180  -0.2326714), wk =   0.0555556
        k(   33) = (   0.2500000   0.2071180  -0.1217748), wk =   0.0555556
        k(   34) = (   0.2500000   0.2071180  -0.0108782), wk =   0.0555556
        k(   35) = (   0.2500000  -0.3106770   0.1000185), wk =   0.0277778
        k(   36) = (   0.2500000  -0.3106770   0.2109151), wk =   0.0277778
        k(   37) = (   0.2500000  -0.3106770   0.3218117), wk =   0.0277778
        k(   38) = (   0.2500000  -0.3106770  -0.2326714), wk =   0.0277778
        k(   39) = (   0.2500000  -0.3106770  -0.1217748), wk =   0.0277778
        k(   40) = (   0.2500000  -0.3106770  -0.0108782), wk =   0.0277778
        k(   41) = (  -0.5000000   0.0000000  -0.2000369), wk =   0.0138889
        k(   42) = (  -0.5000000   0.0000000  -0.0891403), wk =   0.0277778
        k(   43) = (  -0.5000000   0.0000000   0.0217563), wk =   0.0277778
        k(   44) = (  -0.5000000   0.0000000  -0.5327268), wk =   0.0138889
        k(   45) = (  -0.5000000   0.1035590  -0.2000369), wk =   0.0277778
        k(   46) = (  -0.5000000   0.1035590  -0.0891403), wk =   0.0555556
        k(   47) = (  -0.5000000   0.1035590   0.0217563), wk =   0.0555556
        k(   48) = (  -0.5000000   0.1035590  -0.5327268), wk =   0.0277778
        k(   49) = (  -0.5000000   0.2071180  -0.2000369), wk =   0.0277778
        k(   50) = (  -0.5000000   0.2071180  -0.0891403), wk =   0.0555556
        k(   51) = (  -0.5000000   0.2071180   0.0217563), wk =   0.0555556
        k(   52) = (  -0.5000000   0.2071180  -0.5327268), wk =   0.0277778
        k(   53) = (  -0.5000000  -0.3106770  -0.2000369), wk =   0.0138889
        k(   54) = (  -0.5000000  -0.3106770  -0.0891403), wk =   0.0277778
        k(   55) = (  -0.5000000  -0.3106770   0.0217563), wk =   0.0277778
        k(   56) = (  -0.5000000  -0.3106770  -0.5327268), wk =   0.0138889

     Dense  grid:   230085 G-vectors     FFT dimensions: (  60,  96,  96)

     Smooth grid:   164591 G-vectors     FFT dimensions: (  54,  90,  90)

     Estimated max dynamical RAM per process >       1.41 GB

     Initial potential from superposition of free atoms

     starting charge   38.18772, renormalised to   40.00000
     Starting wfcs are   52 randomized atomic wfcs
     Checking if some PAW data can be deallocated... 

     total cpu time spent up to now is       31.6 secs

     Self-consistent Calculation

     iteration #  1     ecut=    75.00 Ry     beta= 0.70
     Davidson diagonalization with overlap
     ethr =  1.00E-02,  avg # of iterations =  3.1

     total cpu time spent up to now is       85.3 secs

     total energy              =    -234.67113330 Ry
     estimated scf accuracy    <       1.05110750 Ry

     iteration #  2     ecut=    75.00 Ry     beta= 0.70
     Davidson diagonalization with overlap
     ethr =  2.63E-03,  avg # of iterations =  2.0

     total cpu time spent up to now is      132.8 secs

     total energy              =    -234.79892731 Ry
     estimated scf accuracy    <       0.04402270 Ry

     iteration #  3     ecut=    75.00 Ry     beta= 0.70
     Davidson diagonalization with overlap
     ethr =  1.10E-04,  avg # of iterations =  8.2

     total cpu time spent up to now is      205.4 secs

     total energy              =    -234.81972154 Ry
     estimated scf accuracy    <       0.00297924 Ry

     iteration #  4     ecut=    75.00 Ry     beta= 0.70
     Davidson diagonalization with overlap
     c_bands:  1 eigenvalues not converged
     c_bands:  2 eigenvalues not converged
     c_bands:  1 eigenvalues not converged
     c_bands:  1 eigenvalues not converged
     c_bands:  1 eigenvalues not converged
     c_bands:  1 eigenvalues not converged
     c_bands:  1 eigenvalues not converged
     c_bands:  1 eigenvalues not converged
     c_bands:  1 eigenvalues not converged
     ethr =  7.45E-06,  avg # of iterations = 13.8

     total cpu time spent up to now is      285.8 secs

     total energy              =    -234.82064134 Ry
     estimated scf accuracy    <       0.00026985 Ry

     iteration #  5     ecut=    75.00 Ry     beta= 0.70
     Davidson diagonalization with overlap
     c_bands:  1 eigenvalues not converged
     c_bands:  1 eigenvalues not converged
     ethr =  6.75E-07,  avg # of iterations =  6.6

     total cpu time spent up to now is      343.6 secs

     total energy              =    -234.82071132 Ry
     estimated scf accuracy    <       0.00003189 Ry

     iteration #  6     ecut=    75.00 Ry     beta= 0.70
     Davidson diagonalization with overlap
     ethr =  7.97E-08,  avg # of iterations =  3.5

     total cpu time spent up to now is      396.9 secs

     total energy              =    -234.82071951 Ry
     estimated scf accuracy    <       0.00000089 Ry

     iteration #  7     ecut=    75.00 Ry     beta= 0.70
     Davidson diagonalization with overlap
     ethr =  2.22E-09,  avg # of iterations =  5.5

     total cpu time spent up to now is      473.8 secs

     total energy              =    -234.82072023 Ry
     estimated scf accuracy    <       0.00000067 Ry

     iteration #  8     ecut=    75.00 Ry     beta= 0.70
     Davidson diagonalization with overlap
     ethr =  1.67E-09,  avg # of iterations =  2.0

     total cpu time spent up to now is      525.3 secs

     total energy              =    -234.82072037 Ry
     estimated scf accuracy    <       0.00000014 Ry

     iteration #  9     ecut=    75.00 Ry     beta= 0.70
     Davidson diagonalization with overlap
     ethr =  3.46E-10,  avg # of iterations =  2.0

     total cpu time spent up to now is      573.3 secs

     End of self-consistent calculation

          k = 0.0000 0.0000 0.0000 ( 20595 PWs)   bands (ev):

   -45.2317 -45.2316 -45.2291 -45.2290  -7.1911  -6.0355  -5.8577  -5.1265
    -4.2171  -3.6046  -3.1825  -3.0304  -2.4755  -2.4727  -2.3440  -2.2258
    -1.9762  -1.8956  -1.5195  -1.3581   3.6695   4.1240   4.5021   4.6140

          k = 0.0000 0.0000 0.1109 ( 20585 PWs)   bands (ev):

   -45.2317 -45.2316 -45.2291 -45.2290  -7.1359  -6.0341  -5.9845  -5.1652
    -4.1862  -3.5013  -3.3249  -2.8352  -2.4807  -2.4667  -2.3428  -2.1668
    -1.9622  -1.8798  -1.5905  -1.3867   3.7394   4.1549   4.2770   4.4582

          k = 0.0000 0.0000 0.2218 ( 20569 PWs)   bands (ev):

   -45.2317 -45.2316 -45.2291 -45.2290  -6.9728  -6.3780  -5.8366  -5.3517
    -4.0781  -3.6042  -3.1560  -2.5418  -2.5282  -2.4015  -2.3909  -2.0307
    -1.9706  -1.8224  -1.7394  -1.5049   3.8794   4.0674   4.1041   4.2280

          k = 0.0000 0.0000-0.3327 ( 20594 PWs)   bands (ev):

   -45.2317 -45.2317 -45.2290 -45.2290  -6.7121  -6.7121  -5.6100  -5.6100
    -3.8752  -3.8752  -2.7575  -2.7575  -2.4777  -2.4777  -2.1181  -2.1181
    -1.8835  -1.8835  -1.6865  -1.6865   3.9345   3.9347   4.2659   4.2660

          k = 0.0000 0.1036 0.0000 ( 20563 PWs)   bands (ev):

   -45.2317 -45.2316 -45.2291 -45.2290  -7.1442  -6.2117  -5.7650  -5.1726
    -4.0411  -3.6869  -3.1617  -2.9812  -2.5644  -2.3756  -2.3248  -2.1560
    -2.1054  -1.8686  -1.5166  -1.4548   3.6533   4.0896   4.5431   4.6014

          k = 0.0000 0.1036 0.1109 ( 20581 PWs)   bands (ev):

   -45.2317 -45.2316 -45.2291 -45.2290  -7.0893  -6.1889  -5.9144  -5.2350
    -4.0136  -3.5746  -3.1021  -2.9654  -2.5583  -2.3994  -2.2679  -2.1892
    -2.0357  -1.8653  -1.6114  -1.4561   3.7183   4.1245   4.2997   4.4131

          k = 0.0000 0.1036 0.2218 ( 20591 PWs)   bands (ev):

   -45.2317 -45.2316 -45.2291 -45.2290  -6.9278  -6.3563  -5.9410  -5.4548
    -3.9043  -3.4849  -3.0933  -2.6413  -2.5499  -2.4509  -2.2529  -2.1239
    -1.9882  -1.8535  -1.7625  -1.5563   3.8637   4.0564   4.1470   4.3104

          k = 0.0000 0.1036-0.3327 ( 20580 PWs)   bands (ev):

   -45.2317 -45.2317 -45.2290 -45.2290  -6.6715  -6.6715  -5.7262  -5.7262
    -3.7084  -3.7084  -2.7471  -2.7471  -2.4834  -2.4834  -2.1464  -2.1464
    -1.9361  -1.9361  -1.7217  -1.7217   3.9632   3.9632   4.2061   4.2070

          k = 0.0000 0.2071 0.0000 ( 20573 PWs)   bands (ev):

   -45.2317 -45.2316 -45.2291 -45.2290  -7.0060  -6.5047  -5.6292  -5.2994
    -3.7186  -3.6259  -3.4022  -2.7255  -2.5340  -2.5138  -2.2874  -2.2772
    -1.9207  -1.8717  -1.7086  -1.5406   3.6615   3.9234   4.3459   4.5495

          k = 0.0000 0.2071 0.1109 ( 20587 PWs)   bands (ev):

   -45.2317 -45.2316 -45.2291 -45.2290  -6.9525  -6.4619  -5.7921  -5.4104
    -3.6376  -3.5178  -3.2091  -2.7755  -2.6182  -2.4278  -2.3323  -2.2587
    -1.9327  -1.8546  -1.7890  -1.5414   3.7274   3.9719   4.2915   4.5256

          k = 0.0000 0.2071 0.2218 ( 20587 PWs)   bands (ev):

   -45.2317 -45.2316 -45.2291 -45.2290  -6.7967  -6.3904  -6.0467  -5.6823
    -3.5053  -3.2527  -2.8914  -2.8674  -2.5863  -2.4015  -2.3353  -2.2600
    -1.9881  -1.9609  -1.8221  -1.6221   3.8876   4.0590   4.1295   4.2802

          k = 0.0000 0.2071-0.3327 ( 20590 PWs)   bands (ev):

   -45.2317 -45.2317 -45.2290 -45.2290  -6.5613  -6.5613  -5.9612  -5.9612
    -3.3302  -3.3302  -2.7523  -2.7523  -2.4990  -2.4990  -2.2442  -2.2442
    -2.0755  -2.0755  -1.7568  -1.7568   4.0259   4.0260   4.1759   4.1759

          k = 0.0000-0.3107 0.0000 ( 20580 PWs)   bands (ev):

   -45.2317 -45.2317 -45.2290 -45.2290  -6.7856  -6.7856  -5.4670  -5.4670
    -3.6166  -3.6166  -3.1216  -3.1216  -2.4365  -2.4365  -2.2450  -2.2450
    -1.9687  -1.9687  -1.6500  -1.6500   3.7531   3.7533   4.4540   4.4541

          k = 0.0000-0.3107 0.1109 ( 20594 PWs)   bands (ev):

   -45.2317 -45.2317 -45.2290 -45.2290  -6.7353  -6.7353  -5.6154  -5.6154
    -3.4406  -3.4406  -3.0806  -3.0806  -2.4697  -2.4697  -2.2654  -2.2654
    -2.0092  -2.0092  -1.6507  -1.6507   3.8168   3.8169   4.3945   4.3948

          k = 0.0000-0.3107 0.2218 ( 20568 PWs)   bands (ev):

   -45.2317 -45.2317 -45.2290 -45.2290  -6.5957  -6.5957  -5.9133  -5.9133
    -3.1257  -3.1257  -2.9546  -2.9546  -2.5438  -2.5438  -2.3005  -2.3005
    -2.0805  -2.0805  -1.7073  -1.7073   3.9619   3.9620   4.2035   4.2037

          k = 0.0000-0.3107-0.3327 ( 20580 PWs)   bands (ev):

   -45.2317 -45.2317 -45.2290 -45.2290  -6.4687  -6.4687  -6.1071  -6.1071
    -2.9630  -2.9630  -2.9161  -2.9161  -2.4978  -2.4978  -2.3539  -2.3539
    -2.1279  -2.1279  -1.7657  -1.7657   4.0411   4.0412   4.1549   4.1550

          k = 0.2500 0.0000 0.1000 ( 20585 PWs)   bands (ev):

   -45.2317 -45.2316 -45.2291 -45.2290  -6.9180  -5.8810  -5.7616  -5.1260
    -3.9513  -3.5621  -3.4394  -3.1705  -2.8688  -2.5286  -2.4651  -2.3617
    -2.2869  -2.1257  -2.0509  -1.2400   4.2155   4.2359   4.4358   4.5773

          k = 0.2500 0.0000 0.2109 ( 20588 PWs)   bands (ev):

   -45.2317 -45.2316 -45.2291 -45.2290  -6.7941  -6.0624  -5.8071  -5.1755
    -3.8713  -3.6197  -3.2329  -3.0899  -3.0501  -2.6497  -2.4934  -2.2907
    -2.1081  -2.0927  -1.8813  -1.3873   4.0883   4.1241   4.2253   4.3953

          k = 0.2500 0.0000 0.3218 ( 20586 PWs)   bands (ev):

   -45.2317 -45.2316 -45.2291 -45.2290  -6.5738  -6.3914  -5.6597  -5.3672
    -3.7946  -3.7184  -3.1941  -2.9121  -2.8272  -2.7469  -2.4829  -2.2762
    -2.1798  -1.9417  -1.8347  -1.6249   3.8068   3.9293   4.1830   4.2929

          k = 0.2500 0.0000-0.2327 ( 20554 PWs)   bands (ev):

   -45.2316 -45.2316 -45.2291 -45.2291  -6.6653  -6.2758  -5.5907  -5.4662
    -3.9498  -3.4832  -3.3077  -2.8144  -2.7802  -2.6039  -2.4981  -2.4540
    -2.0334  -2.0111  -1.8855  -1.7615   3.8457   3.8806   4.0258   4.5381

          k = 0.2500 0.0000-0.1218 ( 20577 PWs)   bands (ev):

   -45.2317 -45.2316 -45.2291 -45.2290  -6.8519  -5.9435  -5.7688  -5.2821
    -4.0470  -3.5052  -3.2605  -2.8141  -2.7749  -2.6799  -2.5189  -2.2945
    -2.2870  -2.1193  -2.1147  -1.4467   3.8594   4.1202   4.1701   4.4976

          k = 0.2500 0.0000-0.0109 ( 20591 PWs)   bands (ev):

   -45.2317 -45.2316 -45.2291 -45.2290  -6.9377  -5.8690  -5.6961  -5.1827
    -4.0364  -3.6646  -3.2736  -2.9601  -2.7818  -2.5965  -2.4413  -2.3976
    -2.2919  -2.2791  -2.1264  -1.2507   4.0537   4.1937   4.3408   4.6793

          k = 0.2500 0.1036 0.1000 ( 20584 PWs)   bands (ev):

   -45.2317 -45.2316 -45.2291 -45.2290  -6.8742  -6.0350  -5.6773  -5.1494
    -3.8955  -3.5615  -3.3648  -3.1809  -2.7852  -2.7247  -2.5300  -2.5032
    -2.2505  -1.9370  -1.9175  -1.3119   3.9848   4.2472   4.4749   4.5454

          k = 0.2500 0.1036 0.2109 ( 20582 PWs)   bands (ev):

   -45.2317 -45.2316 -45.2291 -45.2290  -6.7523  -6.0744  -5.8537  -5.2395
    -3.8878  -3.4162  -3.2187  -3.1476  -2.8904  -2.8334  -2.5101  -2.3609
    -2.2233  -1.9200  -1.7774  -1.4721   3.9430   4.0167   4.2998   4.3745

          k = 0.2500 0.1036 0.3218 ( 20572 PWs)   bands (ev):

   -45.2317 -45.2316 -45.2291 -45.2290  -6.5374  -6.3548  -5.7421  -5.4569
    -3.8506  -3.4492  -3.1468  -2.9608  -2.8497  -2.7555  -2.4804  -2.3535
    -2.1538  -1.9370  -1.7765  -1.6998   3.7304   4.0249   4.1050   4.2278

          k = 0.2500 0.1036-0.2327 ( 20551 PWs)   bands (ev):

   -45.2316 -45.2316 -45.2291 -45.2291  -6.6236  -6.2505  -5.6967  -5.5212
    -3.8704  -3.3799  -3.2506  -2.9246  -2.8094  -2.5990  -2.5129  -2.3464
    -2.1023  -2.0281  -1.9195  -1.7213   3.7821   3.9800   4.0716   4.2295

          k = 0.2500 0.1036-0.1218 ( 20575 PWs)   bands (ev):

   -45.2317 -45.2316 -45.2291 -45.2290  -6.8078  -6.0125  -5.7768  -5.3230
    -3.9297  -3.4650  -3.2308  -2.9260  -2.8441  -2.6645  -2.5726  -2.3081
    -2.1803  -2.1350  -2.0284  -1.4684   3.8733   4.0699   4.1726   4.4455

          k = 0.2500 0.1036-0.0109 ( 20584 PWs)   bands (ev):

   -45.2317 -45.2316 -45.2291 -45.2290  -6.8932  -6.0288  -5.6103  -5.2017
    -3.9271  -3.6499  -3.2575  -2.9977  -2.8560  -2.7001  -2.5977  -2.4082
    -2.2074  -2.1161  -1.9892  -1.3016   4.0050   4.1010   4.3442   4.5891

          k = 0.2500 0.2071 0.1000 ( 20585 PWs)   bands (ev):

   -45.2317 -45.2316 -45.2291 -45.2290  -6.7459  -6.2911  -5.5531  -5.2481
    -3.7350  -3.4985  -3.3692  -3.0870  -2.9745  -2.7874  -2.7062  -2.4913
    -2.1338  -1.7617  -1.7318  -1.5094   3.8532   4.2600   4.4091   4.4639

          k = 0.2500 0.2071 0.2109 ( 20576 PWs)   bands (ev):

   -45.2317 -45.2316 -45.2291 -45.2290  -6.6308  -6.2237  -5.8047  -5.4193
    -3.7578  -3.2671  -3.1870  -3.0590  -3.0174  -2.7012  -2.6414  -2.4767
    -2.2271  -1.7423  -1.7147  -1.6532   3.7709   3.9497   4.1619   4.3986

          k = 0.2500 0.2071 0.3218 ( 20569 PWs)   bands (ev):

   -45.2316 -45.2316 -45.2291 -45.2291  -6.4348  -6.2736  -5.8931  -5.6695
    -3.7354  -3.2600  -3.0654  -2.9954  -2.7338  -2.6633  -2.6463  -2.3471
    -2.2706  -1.9936  -1.7747  -1.7080   3.7039   3.8583   4.0202   4.1071

          k = 0.2500 0.2071-0.2327 ( 20550 PWs)   bands (ev):

   -45.2316 -45.2316 -45.2291 -45.2291  -6.5039  -6.2194  -5.8629  -5.6723
    -3.6956  -3.2493  -3.1016  -3.0746  -2.8254  -2.5563  -2.4138  -2.3354
    -2.2743  -2.1932  -1.8150  -1.7157   3.8137   3.9424   4.0413   4.1137

          k = 0.2500 0.2071-0.1218 ( 20578 PWs)   bands (ev):

   -45.2316 -45.2316 -45.2291 -45.2291  -6.6787  -6.2300  -5.7074  -5.4347
    -3.6781  -3.3659  -3.1499  -3.0913  -3.0377  -2.6783  -2.6038  -2.3229
    -2.1953  -2.0386  -1.8427  -1.5481   3.9450   4.0637   4.1468   4.3423

          k = 0.2500 0.2071-0.0109 ( 20585 PWs)   bands (ev):

   -45.2317 -45.2316 -45.2291 -45.2290  -6.7625  -6.2960  -5.4954  -5.2684
    -3.6778  -3.5928  -3.3048  -3.0517  -2.9825  -2.8432  -2.7562  -2.3853
    -2.0888  -1.8969  -1.8081  -1.4495   3.9473   4.1807   4.3269   4.5034

          k = 0.2500-0.3107 0.1000 ( 20576 PWs)   bands (ev):

   -45.2316 -45.2316 -45.2291 -45.2291  -6.5438  -6.5438  -5.4010  -5.4010
    -3.5348  -3.5348  -3.3115  -3.3115  -2.8700  -2.8700  -2.6306  -2.6306
    -1.8557  -1.8557  -1.6467  -1.6467   4.0100   4.0100   4.4418   4.4421

          k = 0.2500-0.3107 0.2109 ( 20574 PWs)   bands (ev):

   -45.2316 -45.2316 -45.2291 -45.2291  -6.4432  -6.4432  -5.6337  -5.6337
    -3.5136  -3.5136  -3.1125  -3.1125  -2.8015  -2.8015  -2.5761  -2.5761
    -2.0250  -2.0250  -1.6432  -1.6432   3.8312   3.8313   4.1789   4.1790

          k = 0.2500-0.3107 0.3218 ( 20580 PWs)   bands (ev):

   -45.2316 -45.2316 -45.2291 -45.2291  -6.3006  -6.3006  -5.8758  -5.8758
    -3.5146  -3.5146  -2.9139  -2.9139  -2.6724  -2.6724  -2.4859  -2.4859
    -2.2482  -2.2482  -1.7113  -1.7113   3.7706   3.7706   3.9672   3.9673

          k = 0.2500-0.3107-0.2327 ( 20542 PWs)   bands (ev):

   -45.2316 -45.2316 -45.2291 -45.2291  -6.3325  -6.3325  -5.8343  -5.8343
    -3.4749  -3.4749  -3.0111  -3.0111  -2.6133  -2.6133  -2.4576  -2.4576
    -2.2732  -2.2732  -1.7458  -1.7458   3.9237   3.9237   3.9562   3.9562

          k = 0.2500-0.3107-0.1218 ( 20576 PWs)   bands (ev):

   -45.2316 -45.2316 -45.2291 -45.2291  -6.4765  -6.4765  -5.5784  -5.5784
    -3.4084  -3.4084  -3.2308  -3.2308  -2.8474  -2.8474  -2.5088  -2.5088
    -2.0545  -2.0545  -1.6800  -1.6800   4.0461   4.0462   4.2226   4.2238

          k = 0.2500-0.3107-0.0109 ( 20586 PWs)   bands (ev):

   -45.2316 -45.2316 -45.2291 -45.2291  -6.5560  -6.5560  -5.3755  -5.3755
    -3.5068  -3.5068  -3.3135  -3.3135  -2.9419  -2.9419  -2.5889  -2.5889
    -1.8821  -1.8821  -1.6453  -1.6453   4.1258   4.1259   4.4032   4.4038

          k =-0.5000 0.0000-0.2000 ( 20538 PWs)   bands (ev):

   -45.2317 -45.2315 -45.2292 -45.2290  -6.4748  -5.8440  -5.4806  -5.3647
    -3.7758  -3.4505  -3.3074  -3.2975  -3.2525  -3.1570  -2.8055  -2.7688
    -2.5377  -2.0569  -1.6975  -1.4263   3.5558   4.4028   4.4079   4.6702

          k =-0.5000 0.0000-0.0891 ( 20561 PWs)   bands (ev):

   -45.2317 -45.2315 -45.2292 -45.2290  -6.4427  -5.7994  -5.6855  -5.2768
    -3.7466  -3.4820  -3.4017  -3.2610  -3.2056  -2.8908  -2.8829  -2.7376
    -2.5189  -2.1282  -1.8093  -1.4660   3.6954   3.8680   4.4369   4.5869

          k =-0.5000 0.0000 0.0218 ( 20614 PWs)   bands (ev):

   -45.2316 -45.2316 -45.2291 -45.2291  -6.3447  -5.9515  -5.6746  -5.3307
    -3.6630  -3.5191  -3.2963  -3.2226  -3.2174  -3.0000  -2.6515  -2.5371
    -2.4092  -2.2902  -2.0646  -1.6396   3.5676   3.8545   4.3920   4.6548

          k =-0.5000 0.0000-0.5327 ( 20624 PWs)   bands (ev):

   -45.2316 -45.2316 -45.2291 -45.2291  -6.1791  -6.1791  -5.4983  -5.4983
    -3.5570  -3.5570  -3.2808  -3.2808  -3.0750  -3.0750  -2.5111  -2.5111
    -2.3606  -2.3606  -1.9638  -1.9638   3.6132   3.6132   4.6916   4.6942

          k =-0.5000 0.1036-0.2000 ( 20562 PWs)   bands (ev):

   -45.2317 -45.2315 -45.2292 -45.2290  -6.4421  -5.9113  -5.4262  -5.3467
    -3.9184  -3.5894  -3.4923  -3.3155  -3.1892  -3.0224  -2.6690  -2.6156
    -2.3714  -2.1601  -1.6552  -1.4908   3.5979   3.9750   4.3310   4.4134

          k =-0.5000 0.1036-0.0891 ( 20577 PWs)   bands (ev):

   -45.2316 -45.2315 -45.2292 -45.2290  -6.4102  -5.8857  -5.6084  -5.2787
    -3.8981  -3.5742  -3.4764  -3.2261  -3.1423  -2.9915  -2.7283  -2.5697
    -2.3773  -2.2095  -1.7613  -1.5152   3.7011   3.9421   4.0389   4.3598

          k =-0.5000 0.1036 0.0218 ( 20597 PWs)   bands (ev):

   -45.2316 -45.2316 -45.2291 -45.2291  -6.3137  -5.9530  -5.6804  -5.3590
    -3.8128  -3.5214  -3.4071  -3.1978  -3.0965  -2.8740  -2.7348  -2.4847
    -2.4416  -2.2059  -1.9831  -1.6647   3.6127   3.9149   4.1286   4.4336

          k =-0.5000 0.1036-0.5327 ( 20604 PWs)   bands (ev):

   -45.2316 -45.2316 -45.2291 -45.2291  -6.1536  -6.1536  -5.5309  -5.5309
    -3.6586  -3.6586  -3.2626  -3.2626  -2.9531  -2.9531  -2.6369  -2.6369
    -2.2514  -2.2514  -1.9383  -1.9383   3.6794   3.6794   4.3627   4.3627

          k =-0.5000 0.2071-0.2000 ( 20582 PWs)   bands (ev):

   -45.2316 -45.2316 -45.2291 -45.2291  -6.3491  -6.0535  -5.3345  -5.3069
    -4.0648  -3.8886  -3.6072  -3.4908  -2.9293  -2.9156  -2.4929  -2.3799
    -2.2310  -2.0776  -1.6666  -1.6590   3.5435   3.6049   3.9036   4.2733

          k =-0.5000 0.2071-0.0891 ( 20569 PWs)   bands (ev):

   -45.2316 -45.2316 -45.2291 -45.2291  -6.3182  -6.0286  -5.4909  -5.3030
    -4.0316  -3.8390  -3.5335  -3.3482  -2.9742  -2.9244  -2.5117  -2.4514
    -2.2796  -2.0317  -1.7834  -1.6344   3.5964   3.7380   3.8774   4.1211

          k =-0.5000 0.2071 0.0218 ( 20546 PWs)   bands (ev):

   -45.2316 -45.2316 -45.2291 -45.2291  -6.2273  -5.9982  -5.6518  -5.4414
    -3.9147  -3.7351  -3.3592  -3.2688  -2.9333  -2.8936  -2.6428  -2.5103
    -2.3030  -2.0255  -1.9324  -1.7266   3.7407   3.8023   4.0079   4.0736

          k =-0.5000 0.2071-0.5327 ( 20538 PWs)   bands (ev):

   -45.2316 -45.2316 -45.2291 -45.2291  -6.0918  -6.0918  -5.6082  -5.6082
    -3.7579  -3.7579  -3.3088  -3.3088  -2.8210  -2.8210  -2.6469  -2.6469
    -2.1912  -2.1912  -1.8781  -1.8781   3.8291   3.8292   4.1079   4.1080

          k =-0.5000-0.3107-0.2000 ( 20568 PWs)   bands (ev):

   -45.2316 -45.2316 -45.2291 -45.2291  -6.2111  -6.2111  -5.2881  -5.2881
    -4.0642  -4.0642  -3.6078  -3.6078  -2.8319  -2.8319  -2.4398  -2.4398
    -1.9450  -1.9450  -1.7921  -1.7921   3.4232   3.4232   4.0144   4.0145

          k =-0.5000-0.3107-0.0891 ( 20548 PWs)   bands (ev):

   -45.2316 -45.2316 -45.2291 -45.2291  -6.1824  -6.1824  -5.3777  -5.3777
    -4.0109  -4.0109  -3.4920  -3.4920  -2.8729  -2.8729  -2.4865  -2.4865
    -1.9831  -1.9831  -1.7930  -1.7930   3.5151   3.5151   3.9757   3.9760

          k =-0.5000-0.3107 0.0218 ( 20516 PWs)   bands (ev):

   -45.2316 -45.2316 -45.2291 -45.2291  -6.1075  -6.1075  -5.5559  -5.5559
    -3.8805  -3.8805  -3.3210  -3.3210  -2.9235  -2.9235  -2.5309  -2.5309
    -2.0969  -2.0969  -1.8236  -1.8236   3.7540   3.7540   3.9546   3.9547

          k =-0.5000-0.3107-0.5327 ( 20512 PWs)   bands (ev):

   -45.2316 -45.2316 -45.2291 -45.2291  -6.0517  -6.0517  -5.6567  -5.6567
    -3.7857  -3.7857  -3.3446  -3.3446  -2.8312  -2.8312  -2.5588  -2.5588
    -2.1811  -2.1811  -1.8525  -1.8525   3.9704   3.9705   3.9832   3.9832

     the Fermi energy is     1.6929 ev

!    total energy              =    -234.82072038 Ry
     estimated scf accuracy    <          1.4E-09 Ry
     smearing contrib. (-TS)   =       0.00000000 Ry
     internal energy E=F+TS    =    -234.82072038 Ry

     The total energy is F=E-TS. E is the sum of the following terms:
     one-electron contribution =     -37.35891719 Ry
     hartree contribution      =      22.07667968 Ry
     xc contribution           =     -35.18014314 Ry
     ewald contribution        =     -45.59880943 Ry
     one-center paw contrib.   =    -138.75953030 Ry

     convergence has been achieved in   9 iterations

     Forces acting on atoms (cartesian axes, Ry/au):

     atom    1 type  2   force =    -0.00027877   -0.00160889   -0.00037646
     atom    2 type  2   force =     0.00027877    0.00160889    0.00037646
     atom    3 type  2   force =     0.00027877   -0.00160889    0.00037646
     atom    4 type  2   force =    -0.00027877    0.00160889   -0.00037646
     atom    5 type  1   force =    -0.00029825    0.00026865   -0.00005105
     atom    6 type  1   force =     0.00029825   -0.00026865    0.00005105
     atom    7 type  1   force =     0.00029825    0.00026865    0.00005105
     atom    8 type  1   force =    -0.00029825   -0.00026865   -0.00005105
     atom    9 type  3   force =     0.00054298   -0.00026383   -0.00035122
     atom   10 type  3   force =    -0.00054298    0.00026383    0.00035122
     atom   11 type  3   force =    -0.00054298   -0.00026383    0.00035122
     atom   12 type  3   force =     0.00054298    0.00026383   -0.00035122
     atom   13 type  3   force =     0.00092968   -0.00057984    0.00012583
     atom   14 type  3   force =    -0.00092968    0.00057984   -0.00012583
     atom   15 type  3   force =    -0.00092968   -0.00057984   -0.00012583
     atom   16 type  3   force =     0.00092968    0.00057984    0.00012583
     atom   17 type  3   force =     0.00035481   -0.00041904    0.00105383
     atom   18 type  3   force =    -0.00035481    0.00041904   -0.00105383
     atom   19 type  3   force =    -0.00035481   -0.00041904   -0.00105383
     atom   20 type  3   force =     0.00035481    0.00041904    0.00105383
     atom   21 type  3   force =     0.00209899   -0.00286723    0.00072244
     atom   22 type  3   force =    -0.00209899    0.00286723   -0.00072244
     atom   23 type  3   force =    -0.00209899   -0.00286723   -0.00072244
     atom   24 type  3   force =     0.00209899    0.00286723    0.00072244

     Total force =     0.008772     Total SCF correction =     0.000016


     Computing stress (Cartesian axis) and pressure

          total   stress  (Ry/bohr**3)                   (kbar)     P=       -0.64
  -0.00000334   0.00000000   0.00000404           -0.49        0.00        0.59
   0.00000000  -0.00000008   0.00000000            0.00       -0.01        0.00
   0.00000404   0.00000000  -0.00000971            0.59        0.00       -1.43


     Writing output data file ./LiAlH4_experimental.save/

     init_run     :     73.51s CPU     31.50s WALL (       1 calls)
     electrons    :   2139.60s CPU    541.71s WALL (       1 calls)
     forces       :     32.16s CPU      8.04s WALL (       1 calls)
     stress       :    183.67s CPU     53.03s WALL (       1 calls)

     Called by init_run:
     wfcinit      :     67.65s CPU     26.51s WALL (       1 calls)
     potinit      :      1.86s CPU      1.91s WALL (       1 calls)
     hinit0       :      2.14s CPU      2.15s WALL (       1 calls)

     Called by electrons:
     c_bands      :   1877.23s CPU    455.14s WALL (       9 calls)
     sum_band     :    243.33s CPU     74.08s WALL (       9 calls)
     v_of_rho     :      2.09s CPU      2.08s WALL (      10 calls)
     newd         :     13.86s CPU      7.54s WALL (      10 calls)
     PAW_pot      :      3.52s CPU      3.52s WALL (      10 calls)
     mix_rho      :      1.11s CPU      0.38s WALL (       9 calls)

     Called by c_bands:
     init_us_2    :     76.85s CPU     20.11s WALL (    1176 calls)
     cegterg      :   1703.37s CPU    400.73s WALL (     504 calls)

     Called by *egterg:
     cdiaghg      :     21.10s CPU      2.43s WALL (    3116 calls)
     h_psi        :   1162.03s CPU    361.10s WALL (    3172 calls)
     s_psi        :    207.27s CPU     15.63s WALL (    3172 calls)
     g_psi        :     37.15s CPU      7.81s WALL (    2612 calls)

     Called by h_psi:
     h_psi:calbec :    155.00s CPU     13.75s WALL (    3172 calls)
     vloc_psi     :    719.68s CPU    324.51s WALL (    3172 calls)
     add_vuspsi   :    276.17s CPU     19.43s WALL (    3172 calls)

     General routines
     calbec       :    207.78s CPU     18.93s WALL (    3956 calls)
     fft          :      2.43s CPU      1.64s WALL (     153 calls)
     ffts         :      0.38s CPU      0.13s WALL (      19 calls)
     fftw         :    706.00s CPU    326.35s WALL (   94618 calls)
     interpolate  :      0.17s CPU      0.18s WALL (      10 calls)

     Parallel routines

     PWSCF        :  40m29.43s CPU  10m35.03s WALL


   This run was terminated on:  19:16:53  15Nov2023            

=------------------------------------------------------------------------------=
   JOB DONE.
=------------------------------------------------------------------------------=
