
     Program PWSCF v.6.7MaX starts on 15Nov2023 at 18:53:58 

     This program is part of the open-source Quantum ESPRESSO suite
     for quantum simulation of materials; please cite
         "P. Giannozzi et al., J. Phys.:Condens. Matter 21 395502 (2009);
         "P. Giannozzi et al., J. Phys.:Condens. Matter 29 465901 (2017);
          URL http://www.quantum-espresso.org", 
     in publications or presentations arising from this work. More details at
     http://www.quantum-espresso.org/quote

     Parallel version (MPI), running on     1 processors

     MPI processes distributed on     1 nodes
     Reading input from LiH.in

     Current dimensions of program PWSCF are:
     Max number of different atomic species (ntypx) = 10
     Max number of k-points (npk) =  40000
     Max angular momentum in pseudopotentials (lmaxx) =  3
     Message from routine volume:
     axis vectors are left-handed

     IMPORTANT: XC functional enforced from input :
     Exchange-correlation= PBE
                           (   1   4   3   4   0   0   0)
     Any further DFT definition will be discarded
     Please, verify this is what you really want


     Subspace diagonalization in iterative solution of the eigenvalue problem:
     a serial algorithm will be used

     Message from routine setup:
     using ibrav=0 with symmetry is DISCOURAGED, use correct ibrav instead

     G-vector sticks info
     --------------------
     sticks:   dense  smooth     PW     G-vecs:    dense   smooth      PW
     Sum         745     595    187                13443     9577    1687



     bravais-lattice index     =            0
     lattice parameter (alat)  =       7.5915  a.u.
     unit-cell volume          =     109.3755 (a.u.)^3
     number of atoms/cell      =            2
     number of atomic types    =            2
     number of electrons       =         4.00
     number of Kohn-Sham states=            6
     kinetic-energy cutoff     =      75.0000  Ry
     charge density cutoff     =     375.0000  Ry
     scf convergence threshold =      1.0E-08
     mixing beta               =       0.7000
     number of iterations used =            8  plain     mixing
     Exchange-correlation= PBE
                           (   1   4   3   4   0   0   0)

     celldm(1)=   7.591483  celldm(2)=   0.000000  celldm(3)=   0.000000
     celldm(4)=   0.000000  celldm(5)=   0.000000  celldm(6)=   0.000000

     crystal axes: (cart. coord. in units of alat)
               a(1) = (   0.500000   0.500000   0.000000 )  
               a(2) = (   0.500000   0.000000   0.500000 )  
               a(3) = (   0.000000   0.500000   0.500000 )  

     reciprocal axes: (cart. coord. in units 2 pi/alat)
               b(1) = (  1.000000  1.000000 -1.000000 )  
               b(2) = (  1.000000 -1.000000  1.000000 )  
               b(3) = ( -1.000000  1.000000  1.000000 )  


     PseudoPot. # 1 for Li read from file:
     ../../pseudopotentials/li_pbe_v1.4.uspp.F.UPF
     MD5 check sum: e912e257baa3777c20ea3d68f190483c
     Pseudo is Ultrasoft, Zval =  3.0
     Generated by new atomic code, or converted to UPF format
     Using radial grid of  751 points,  5 beta functions with: 
                l(1) =   0
                l(2) =   0
                l(3) =   0
                l(4) =   1
                l(5) =   1
     Q(r) pseudized with 10 coefficients,  rinner =    1.150   1.150   1.150


     PseudoPot. # 2 for H  read from file:
     ../../pseudopotentials/H.pbe-rrkjus_psl.1.0.0.UPF
     MD5 check sum: f52b6d4d1c606e5624b1dc7b2218f220
     Pseudo is Ultrasoft, Zval =  1.0
     Generated using "atomic" code by A. Dal Corso  v.5.1
     Using radial grid of  929 points,  2 beta functions with: 
                l(1) =   0
                l(2) =   0
     Q(r) pseudized with 0 coefficients 


     atomic species   valence    mass     pseudopotential
        Li             3.00     6.96750     Li( 1.00)
        H              1.00     1.00750     H ( 1.00)

     48 Sym. Ops., with inversion, found



   Cartesian axes

     site n.     atom                  positions (alat units)
         1           Li  tau(   1) = (   0.0000000   0.0000000   0.0000000  )
         2           H   tau(   2) = (   0.5000000   0.5000000   0.5000000  )

     number of k points=    16  Marzari-Vanderbilt smearing, width (Ry)=  0.0050
                       cart. coord. in units 2pi/alat
        k(    1) = (   0.0000000   0.0000000   0.0000000), wk =   0.0092593
        k(    2) = (  -0.1666667   0.1666667   0.1666667), wk =   0.0740741
        k(    3) = (  -0.3333333   0.3333333   0.3333333), wk =   0.0740741
        k(    4) = (   0.5000000  -0.5000000  -0.5000000), wk =   0.0370370
        k(    5) = (   0.0000000   0.0000000   0.3333333), wk =   0.0555556
        k(    6) = (  -0.1666667   0.1666667   0.5000000), wk =   0.2222222
        k(    7) = (   0.6666667  -0.6666667  -0.3333333), wk =   0.2222222
        k(    8) = (   0.5000000  -0.5000000  -0.1666667), wk =   0.2222222
        k(    9) = (   0.3333333  -0.3333333   0.0000000), wk =   0.1111111
        k(   10) = (   0.0000000   0.0000000   0.6666667), wk =   0.0555556
        k(   11) = (   0.8333333  -0.8333333  -0.1666667), wk =   0.2222222
        k(   12) = (   0.6666667  -0.6666667  -0.0000000), wk =   0.1111111
        k(   13) = (   0.0000000   0.0000000  -1.0000000), wk =   0.0277778
        k(   14) = (   1.0000000  -0.6666667  -0.3333333), wk =   0.2222222
        k(   15) = (   0.8333333  -0.5000000  -0.1666667), wk =   0.2222222
        k(   16) = (   0.0000000   0.3333333  -1.0000000), wk =   0.1111111

     Dense  grid:    13443 G-vectors     FFT dimensions: (  36,  36,  36)

     Smooth grid:     9577 G-vectors     FFT dimensions: (  30,  30,  30)

     Estimated max dynamical RAM per process >      24.68 MB

     Initial potential from superposition of free atoms

     starting charge    3.54925, renormalised to    4.00000
     Starting wfcs are    6 randomized atomic wfcs

     total cpu time spent up to now is        0.3 secs

     Self-consistent Calculation

     iteration #  1     ecut=    75.00 Ry     beta= 0.70
     Davidson diagonalization with overlap
     ethr =  1.00E-02,  avg # of iterations =  3.6

     total cpu time spent up to now is        0.6 secs

     total energy              =     -15.68402114 Ry
     estimated scf accuracy    <       0.15216049 Ry

     iteration #  2     ecut=    75.00 Ry     beta= 0.70
     Davidson diagonalization with overlap
     ethr =  3.80E-03,  avg # of iterations =  1.1

     total cpu time spent up to now is        0.9 secs

     total energy              =     -15.69865270 Ry
     estimated scf accuracy    <       0.00365352 Ry

     iteration #  3     ecut=    75.00 Ry     beta= 0.70
     Davidson diagonalization with overlap
     ethr =  9.13E-05,  avg # of iterations =  2.9

     total cpu time spent up to now is        1.1 secs

     total energy              =     -15.69978700 Ry
     estimated scf accuracy    <       0.00011238 Ry

     iteration #  4     ecut=    75.00 Ry     beta= 0.70
     Davidson diagonalization with overlap
     ethr =  2.81E-06,  avg # of iterations =  3.6

     total cpu time spent up to now is        1.6 secs

     total energy              =     -15.69981582 Ry
     estimated scf accuracy    <       0.00000127 Ry

     iteration #  5     ecut=    75.00 Ry     beta= 0.70
     Davidson diagonalization with overlap
     ethr =  3.19E-08,  avg # of iterations =  3.6

     total cpu time spent up to now is        1.9 secs

     total energy              =     -15.69981722 Ry
     estimated scf accuracy    <       0.00000007 Ry

     iteration #  6     ecut=    75.00 Ry     beta= 0.70
     Davidson diagonalization with overlap
     ethr =  1.64E-09,  avg # of iterations =  1.4

     total cpu time spent up to now is        2.2 secs

     End of self-consistent calculation

          k = 0.0000 0.0000 0.0000 (  1243 PWs)   bands (ev):

   -43.6619  -4.8136  16.6016  18.4171  18.4171  18.4171

          k =-0.1667 0.1667 0.1667 (  1215 PWs)   bands (ev):

   -43.6506  -4.3289  13.0381  16.5587  17.6046  17.6046

          k =-0.3333 0.3333 0.3333 (  1194 PWs)   bands (ev):

   -43.6280  -3.0246   7.8831  14.8448  16.9835  16.9835

          k = 0.5000-0.5000-0.5000 (  1194 PWs)   bands (ev):

   -43.6167  -2.0081   5.4864  14.2039  17.0367  17.0367

          k = 0.0000 0.0000 0.3333 (  1219 PWs)   bands (ev):

   -43.6469  -4.1463  13.7331  15.2484  15.2484  19.0457

          k =-0.1667 0.1667 0.5000 (  1207 PWs)   bands (ev):

   -43.6282  -3.0277   9.4247  12.7139  14.0817  17.7656

          k = 0.6667-0.6667-0.3333 (  1201 PWs)   bands (ev):

   -43.6132  -1.6042   5.8737  11.0935  14.3436  16.6072

          k = 0.5000-0.5000-0.1667 (  1192 PWs)   bands (ev):

   -43.6169  -2.0450   6.8260  10.7055  16.0216  16.2552

          k = 0.3333-0.3333 0.0000 (  1193 PWs)   bands (ev):

   -43.6356  -3.5297  11.3265  11.5994  16.8184  18.5794

          k = 0.0000 0.0000 0.6667 (  1218 PWs)   bands (ev):

   -43.6174  -2.0575   7.9265  12.3714  12.3714  15.5817

          k = 0.8333-0.8333-0.1667 (  1207 PWs)   bands (ev):

   -43.6064  -0.4784   5.3159   9.4144  12.1325  16.8942

          k = 0.6667-0.6667-0.0000 (  1196 PWs)   bands (ev):

   -43.6061  -0.4788   5.6167   7.8428  13.3829  16.5317

          k = 0.0000 0.0000-1.0000 (  1186 PWs)   bands (ev):

   -43.6029   0.5990   3.5871  11.3826  11.3826  14.5500

          k = 1.0000-0.6667-0.3333 (  1192 PWs)   bands (ev):

   -43.6135  -1.6407   7.7511   8.6183  13.4343  17.7982

          k = 0.8333-0.5000-0.1667 (  1192 PWs)   bands (ev):

   -43.6061  -0.4859   5.7646   7.6639  13.0147  17.4674

          k = 0.0000 0.3333-1.0000 (  1200 PWs)   bands (ev):

   -43.6027   0.4281   4.6024   7.6084  12.0870  18.0457

     the Fermi energy is     1.4687 ev

!    total energy              =     -15.69981722 Ry
     estimated scf accuracy    <          9.2E-10 Ry
     smearing contrib. (-TS)   =       0.00000000 Ry
     internal energy E=F+TS    =     -15.69981722 Ry

     The total energy is F=E-TS. E is the sum of the following terms:
     one-electron contribution =      -7.96840210 Ry
     hartree contribution      =       3.32613347 Ry
     xc contribution           =      -4.15678685 Ry
     ewald contribution        =      -6.90076174 Ry

     convergence has been achieved in   6 iterations

     Forces acting on atoms (cartesian axes, Ry/au):

     atom    1 type  1   force =    -0.00000000    0.00000000   -0.00000000
     atom    2 type  2   force =     0.00000000   -0.00000000    0.00000000

     Total force =     0.000000     Total SCF correction =     0.000000


     Computing stress (Cartesian axis) and pressure

          total   stress  (Ry/bohr**3)                   (kbar)     P=       -2.38
  -0.00001619  -0.00000000  -0.00000000           -2.38       -0.00       -0.00
  -0.00000000  -0.00001619  -0.00000000           -0.00       -2.38       -0.00
  -0.00000000  -0.00000000  -0.00001619           -0.00       -0.00       -2.38


     Writing output data file ./LiH_experimental.save/

     init_run     :      0.52s CPU      0.26s WALL (       1 calls)
     electrons    :      7.05s CPU      1.84s WALL (       1 calls)
     forces       :      0.07s CPU      0.02s WALL (       1 calls)
     stress       :      0.47s CPU      0.13s WALL (       1 calls)

     Called by init_run:
     wfcinit      :      0.32s CPU      0.08s WALL (       1 calls)
     potinit      :      0.02s CPU      0.02s WALL (       1 calls)
     hinit0       :      0.15s CPU      0.15s WALL (       1 calls)

     Called by electrons:
     c_bands      :      5.20s CPU      1.39s WALL (       6 calls)
     sum_band     :      1.22s CPU      0.29s WALL (       6 calls)
     v_of_rho     :      0.36s CPU      0.11s WALL (       7 calls)
     newd         :      0.20s CPU      0.04s WALL (       7 calls)
     mix_rho      :      0.03s CPU      0.01s WALL (       6 calls)

     Called by c_bands:
     init_us_2    :      0.19s CPU      0.05s WALL (     240 calls)
     cegterg      :      5.00s CPU      1.34s WALL (      96 calls)

     Called by *egterg:
     cdiaghg      :      0.05s CPU      0.01s WALL (     354 calls)
     h_psi        :      4.84s CPU      1.28s WALL (     370 calls)
     s_psi        :      0.12s CPU      0.05s WALL (     370 calls)
     g_psi        :      0.03s CPU      0.01s WALL (     258 calls)

     Called by h_psi:
     h_psi:calbec :      0.17s CPU      0.06s WALL (     370 calls)
     vloc_psi     :      4.43s CPU      1.14s WALL (     370 calls)
     add_vuspsi   :      0.22s CPU      0.07s WALL (     370 calls)

     General routines
     calbec       :      0.19s CPU      0.06s WALL (     546 calls)
     fft          :      0.24s CPU      0.07s WALL (      97 calls)
     ffts         :      0.04s CPU      0.01s WALL (      13 calls)
     fftw         :      4.58s CPU      1.19s WALL (    3808 calls)
     interpolate  :      0.04s CPU      0.01s WALL (       7 calls)

     Parallel routines

     PWSCF        :      8.20s CPU      2.32s WALL


   This run was terminated on:  18:54: 0  15Nov2023            

=------------------------------------------------------------------------------=
   JOB DONE.
=------------------------------------------------------------------------------=
