
     Program PWSCF v.6.7MaX starts on 15Nov2023 at 19:18: 4 

     This program is part of the open-source Quantum ESPRESSO suite
     for quantum simulation of materials; please cite
         "P. Giannozzi et al., J. Phys.:Condens. Matter 21 395502 (2009);
         "P. Giannozzi et al., J. Phys.:Condens. Matter 29 465901 (2017);
          URL http://www.quantum-espresso.org", 
     in publications or presentations arising from this work. More details at
     http://www.quantum-espresso.org/quote

     Parallel version (MPI), running on     1 processors

     MPI processes distributed on     1 nodes
     Reading input from RbAlH4.in

     Current dimensions of program PWSCF are:
     Max number of different atomic species (ntypx) = 10
     Max number of k-points (npk) =  40000
     Max angular momentum in pseudopotentials (lmaxx) =  3
     Message from routine read_pp_mesh:
     mesh size missing, using the one in header
     file Al.pbe-n-kjpaw_psl.1.0.0.UPF: wavefunction(s)  3S 3P renormalized

     IMPORTANT: XC functional enforced from input :
     Exchange-correlation= PBE
                           (   1   4   3   4   0   0   0)
     Any further DFT definition will be discarded
     Please, verify this is what you really want


     Subspace diagonalization in iterative solution of the eigenvalue problem:
     a serial algorithm will be used

     Message from routine setup:
     using ibrav=0 with symmetry is DISCOURAGED, use correct ibrav instead

     G-vector sticks info
     --------------------
     sticks:   dense  smooth     PW     G-vecs:    dense   smooth      PW
     Sum        5779    4629   1253               339763   243163   34561



     bravais-lattice index     =            0
     lattice parameter (alat)  =      17.6546  a.u.
     unit-cell volume          =    2770.2535 (a.u.)^3
     number of atoms/cell      =           24
     number of atomic types    =            3
     number of electrons       =        64.00
     number of Kohn-Sham states=           38
     kinetic-energy cutoff     =      75.0000  Ry
     charge density cutoff     =     375.0000  Ry
     scf convergence threshold =      1.0E-08
     mixing beta               =       0.7000
     number of iterations used =            8  plain     mixing
     Exchange-correlation= PBE
                           (   1   4   3   4   0   0   0)

     celldm(1)=  17.654615  celldm(2)=   0.000000  celldm(3)=   0.000000
     celldm(4)=   0.000000  celldm(5)=   0.000000  celldm(6)=   0.000000

     crystal axes: (cart. coord. in units of alat)
               a(1) = (   1.000000   0.000000   0.000000 )  
               a(2) = (   0.000000   0.621972   0.000000 )  
               a(3) = (   0.000000   0.000000   0.809421 )  

     reciprocal axes: (cart. coord. in units 2 pi/alat)
               b(1) = (  1.000000  0.000000  0.000000 )  
               b(2) = (  0.000000  1.607791  0.000000 )  
               b(3) = (  0.000000  0.000000  1.235452 )  


     PseudoPot. # 1 for H  read from file:
     ../../pseudopotentials/H.pbe-rrkjus_psl.1.0.0.UPF
     MD5 check sum: f52b6d4d1c606e5624b1dc7b2218f220
     Pseudo is Ultrasoft, Zval =  1.0
     Generated using "atomic" code by A. Dal Corso  v.5.1
     Using radial grid of  929 points,  2 beta functions with: 
                l(1) =   0
                l(2) =   0
     Q(r) pseudized with 0 coefficients 


     PseudoPot. # 2 for Al read from file:
     ../../pseudopotentials/Al.pbe-n-kjpaw_psl.1.0.0.UPF
     MD5 check sum: cfc449ca30b5f3223ec38ddd88ac046d
     Pseudo is Projector augmented-wave + core cor, Zval =  3.0
     Generated using "atomic" code by A. Dal Corso  v.5.1
     Shape of augmentation charge: PSQ
     Using radial grid of 1135 points,  6 beta functions with: 
                l(1) =   0
                l(2) =   0
                l(3) =   1
                l(4) =   1
                l(5) =   2
                l(6) =   2
     Q(r) pseudized with 0 coefficients 


     PseudoPot. # 3 for Rb read from file:
     ../../pseudopotentials/Rb_ONCV_PBE-1.0.oncvpsp.upf
     MD5 check sum: 55a5172d6bfbce6759a58e35d43f6aa9
     Pseudo is Norm-conserving, Zval =  9.0
     Generated using ONCVPSP code by D. R. Hamann
     Using radial grid of 2308 points,  6 beta functions with: 
                l(1) =   0
                l(2) =   0
                l(3) =   1
                l(4) =   1
                l(5) =   2
                l(6) =   2

     atomic species   valence    mass     pseudopotential
        H              1.00     1.00750     H ( 1.00)
        Al             3.00    26.98100     Al( 1.00)
        Rb             9.00    85.46780     Rb( 1.00)

      8 Sym. Ops., with inversion, found ( 6 have fractional translation)



   Cartesian axes

     site n.     atom                  positions (alat units)
         1           Rb  tau(   1) = (   0.1813018   0.1554929   0.5339558  )
         2           Rb  tau(   2) = (   0.3186982   0.4664787   0.1292455  )
         3           Rb  tau(   3) = (   0.8186982   0.4664787   0.2754648  )
         4           Rb  tau(   4) = (   0.6813018   0.1554929   0.6801750  )
         5           Al  tau(   5) = (   0.0618114   0.1554929   0.1508363  )
         6           Al  tau(   6) = (   0.4381887   0.4664787   0.5555465  )
         7           Al  tau(   7) = (   0.9381886   0.4664787   0.6585842  )
         8           Al  tau(   8) = (   0.5618114   0.1554929   0.2538740  )
         9           H   tau(   9) = (   0.0801161   0.0149079   0.2522769  )
        10           H   tau(  10) = (   0.4198839   0.3258937   0.6569872  )
        11           H   tau(  11) = (   0.4198839   0.6070636   0.6569872  )
        12           H   tau(  12) = (   0.9198839   0.3258937   0.5571436  )
        13           H   tau(  13) = (   0.9198839   0.6070636   0.5571436  )
        14           H   tau(  14) = (   0.5801161   0.2960779   0.1524333  )
        15           H   tau(  15) = (   0.5801161   0.0149079   0.1524333  )
        16           H   tau(  16) = (   0.0801161   0.2960779   0.2522769  )
        17           H   tau(  17) = (   0.0973685   0.4664787   0.7278765  )
        18           H   tau(  18) = (   0.4026315   0.1554929   0.3231662  )
        19           H   tau(  19) = (   0.9026315   0.1554929   0.0815440  )
        20           H   tau(  20) = (   0.5973685   0.4664787   0.4862543  )
        21           H   tau(  21) = (   0.1888183   0.1554929   0.0323832  )
        22           H   tau(  22) = (   0.3111817   0.4664787   0.4370935  )
        23           H   tau(  23) = (   0.8111817   0.4664787   0.7770373  )
        24           H   tau(  24) = (   0.6888183   0.1554929   0.3723270  )

     number of k points=    36  Marzari-Vanderbilt smearing, width (Ry)=  0.0050
                       cart. coord. in units 2pi/alat
        k(    1) = (   0.0000000   0.0000000   0.0000000), wk =   0.0166667
        k(    2) = (   0.0000000   0.0000000   0.2470903), wk =   0.0333333
        k(    3) = (   0.0000000   0.0000000   0.4941807), wk =   0.0333333
        k(    4) = (   0.0000000   0.2679651   0.0000000), wk =   0.0333333
        k(    5) = (   0.0000000   0.2679651   0.2470903), wk =   0.0666667
        k(    6) = (   0.0000000   0.2679651   0.4941807), wk =   0.0666667
        k(    7) = (   0.0000000   0.5359302   0.0000000), wk =   0.0333333
        k(    8) = (   0.0000000   0.5359302   0.2470903), wk =   0.0666667
        k(    9) = (   0.0000000   0.5359302   0.4941807), wk =   0.0666667
        k(   10) = (   0.0000000  -0.8038953   0.0000000), wk =   0.0166667
        k(   11) = (   0.0000000  -0.8038953   0.2470903), wk =   0.0333333
        k(   12) = (   0.0000000  -0.8038953   0.4941807), wk =   0.0333333
        k(   13) = (   0.2500000   0.0000000   0.0000000), wk =   0.0333333
        k(   14) = (   0.2500000   0.0000000   0.2470903), wk =   0.0666667
        k(   15) = (   0.2500000   0.0000000   0.4941807), wk =   0.0666667
        k(   16) = (   0.2500000   0.2679651   0.0000000), wk =   0.0666667
        k(   17) = (   0.2500000   0.2679651   0.2470903), wk =   0.1333333
        k(   18) = (   0.2500000   0.2679651   0.4941807), wk =   0.1333333
        k(   19) = (   0.2500000   0.5359302   0.0000000), wk =   0.0666667
        k(   20) = (   0.2500000   0.5359302   0.2470903), wk =   0.1333333
        k(   21) = (   0.2500000   0.5359302   0.4941807), wk =   0.1333333
        k(   22) = (   0.2500000  -0.8038953   0.0000000), wk =   0.0333333
        k(   23) = (   0.2500000  -0.8038953   0.2470903), wk =   0.0666667
        k(   24) = (   0.2500000  -0.8038953   0.4941807), wk =   0.0666667
        k(   25) = (  -0.5000000   0.0000000   0.0000000), wk =   0.0166667
        k(   26) = (  -0.5000000   0.0000000   0.2470903), wk =   0.0333333
        k(   27) = (  -0.5000000   0.0000000   0.4941807), wk =   0.0333333
        k(   28) = (  -0.5000000   0.2679651   0.0000000), wk =   0.0333333
        k(   29) = (  -0.5000000   0.2679651   0.2470903), wk =   0.0666667
        k(   30) = (  -0.5000000   0.2679651   0.4941807), wk =   0.0666667
        k(   31) = (  -0.5000000   0.5359302   0.0000000), wk =   0.0333333
        k(   32) = (  -0.5000000   0.5359302   0.2470903), wk =   0.0666667
        k(   33) = (  -0.5000000   0.5359302   0.4941807), wk =   0.0666667
        k(   34) = (  -0.5000000  -0.8038953   0.0000000), wk =   0.0166667
        k(   35) = (  -0.5000000  -0.8038953   0.2470903), wk =   0.0333333
        k(   36) = (  -0.5000000  -0.8038953   0.4941807), wk =   0.0333333

     Dense  grid:   339763 G-vectors     FFT dimensions: ( 120,  72,  90)

     Smooth grid:   243163 G-vectors     FFT dimensions: ( 100,  64,  80)

     Estimated max dynamical RAM per process >       2.11 GB

     Initial potential from superposition of free atoms

     starting charge   63.89162, renormalised to   64.00000
     Starting wfcs are   52 randomized atomic wfcs
     Checking if some PAW data can be deallocated... 

     total cpu time spent up to now is       28.3 secs

     Self-consistent Calculation

     iteration #  1     ecut=    75.00 Ry     beta= 0.70
     Davidson diagonalization with overlap
     ethr =  1.00E-02,  avg # of iterations =  3.8

     total cpu time spent up to now is       93.3 secs

     total energy              =    -372.60731648 Ry
     estimated scf accuracy    <       1.32449664 Ry

     iteration #  2     ecut=    75.00 Ry     beta= 0.70
     Davidson diagonalization with overlap
     ethr =  2.07E-03,  avg # of iterations =  2.0

     total cpu time spent up to now is      151.4 secs

     total energy              =    -372.73094910 Ry
     estimated scf accuracy    <       0.01495562 Ry

     iteration #  3     ecut=    75.00 Ry     beta= 0.70
     Davidson diagonalization with overlap
     ethr =  2.34E-05,  avg # of iterations = 13.2

     total cpu time spent up to now is      249.6 secs

     total energy              =    -372.73754346 Ry
     estimated scf accuracy    <       0.00102487 Ry

     iteration #  4     ecut=    75.00 Ry     beta= 0.70
     Davidson diagonalization with overlap
     c_bands:  1 eigenvalues not converged
     ethr =  1.60E-06,  avg # of iterations =  7.1

     total cpu time spent up to now is      320.5 secs

     total energy              =    -372.73781718 Ry
     estimated scf accuracy    <       0.00006673 Ry

     iteration #  5     ecut=    75.00 Ry     beta= 0.70
     Davidson diagonalization with overlap
     ethr =  1.04E-07,  avg # of iterations =  2.5

     total cpu time spent up to now is      380.0 secs

     total energy              =    -372.73783766 Ry
     estimated scf accuracy    <       0.00000614 Ry

     iteration #  6     ecut=    75.00 Ry     beta= 0.70
     Davidson diagonalization with overlap
     ethr =  9.60E-09,  avg # of iterations =  2.9

     total cpu time spent up to now is      442.5 secs

     total energy              =    -372.73783946 Ry
     estimated scf accuracy    <       0.00000004 Ry

     iteration #  7     ecut=    75.00 Ry     beta= 0.70
     Davidson diagonalization with overlap
     ethr =  6.67E-11,  avg # of iterations =  5.2

     total cpu time spent up to now is      531.9 secs

     End of self-consistent calculation

          k = 0.0000 0.0000 0.0000 ( 30393 PWs)   bands (ev):

   -24.9373 -24.9332 -24.9317 -24.9306  -9.1665  -9.1159  -9.1159  -9.1110
    -9.1025  -9.0640  -9.0416  -9.0401  -9.0254  -9.0108  -9.0049  -9.0002
    -5.0412  -4.3710  -4.2178  -4.0006  -1.7880  -1.4629  -1.1611  -1.1483
    -1.1293  -1.0881  -0.9699  -0.8043  -0.7800  -0.7052  -0.6466  -0.4963
     4.6558   4.7231   5.2558   5.2608   5.3223   5.5357

          k = 0.0000 0.0000 0.2471 ( 30363 PWs)   bands (ev):

   -24.9368 -24.9329 -24.9323 -24.9307  -9.1701  -9.1169  -9.1127  -9.1053
    -9.0953  -9.0608  -9.0524  -9.0383  -9.0256  -9.0188  -9.0116  -9.0006
    -4.9656  -4.4110  -4.1945  -4.0059  -1.7853  -1.4392  -1.3044  -1.1331
    -1.0752  -0.9739  -0.9547  -0.8374  -0.7816  -0.7742  -0.7335  -0.5276
     4.6654   4.8130   5.0234   5.3804   5.4030   5.6027

          k = 0.0000 0.0000 0.4942 ( 30402 PWs)   bands (ev):

   -24.9355 -24.9338 -24.9321 -24.9313  -9.1654  -9.1445  -9.0918  -9.0902
    -9.0705  -9.0626  -9.0586  -9.0526  -9.0435  -9.0323  -9.0089  -9.0029
    -4.7740  -4.5567  -4.1204  -4.0423  -1.7098  -1.5240  -1.3156  -1.0740
    -1.0570  -0.9641  -0.9553  -0.9122  -0.8656  -0.8012  -0.7390  -0.6242
     4.6210   4.7476   5.2129   5.5827   5.6611   5.7662

          k = 0.0000 0.2680 0.0000 ( 30360 PWs)   bands (ev):

   -24.9369 -24.9330 -24.9320 -24.9307  -9.1601  -9.1231  -9.1088  -9.1064
    -9.1016  -9.0656  -9.0585  -9.0460  -9.0247  -9.0141  -9.0098  -9.0009
    -4.9490  -4.3614  -4.2140  -4.0422  -1.7394  -1.4181  -1.2491  -1.1973
    -1.1436  -1.0808  -1.0330  -0.8541  -0.8008  -0.7008  -0.6389  -0.5500
     4.8128   4.8337   4.8968   5.3191   5.5944   5.6241

          k = 0.0000 0.2680 0.2471 ( 30394 PWs)   bands (ev):

   -24.9365 -24.9327 -24.9325 -24.9308  -9.1610  -9.1320  -9.1175  -9.0969
    -9.0875  -9.0774  -9.0566  -9.0468  -9.0224  -9.0162  -9.0125  -9.0015
    -4.8780  -4.3872  -4.1969  -4.0439  -1.7273  -1.4801  -1.2925  -1.1628
    -1.1387  -1.0441  -1.0011  -0.9744  -0.8445  -0.6737  -0.6228  -0.5778
     4.8156   4.9136   4.9577   5.4036   5.4868   5.6382

          k = 0.0000 0.2680 0.4942 ( 30383 PWs)   bands (ev):

   -24.9353 -24.9338 -24.9321 -24.9313  -9.1561  -9.1394  -9.1288  -9.1075
    -9.0809  -9.0612  -9.0591  -9.0384  -9.0341  -9.0233  -9.0093  -9.0041
    -4.7002  -4.5055  -4.1348  -4.0700  -1.6469  -1.4785  -1.4549  -1.2795
    -1.1117  -1.0333  -1.0125  -0.9647  -0.8287  -0.7151  -0.6164  -0.6118
     4.7965   4.8930   5.2180   5.5355   5.6950   5.7653

          k = 0.0000 0.5359 0.0000 ( 30394 PWs)   bands (ev):

   -24.9357 -24.9329 -24.9324 -24.9311  -9.1464  -9.1304  -9.1182  -9.0941
    -9.0908  -9.0818  -9.0636  -9.0575  -9.0343  -9.0256  -9.0142  -9.0036
    -4.7115  -4.3251  -4.2580  -4.1428  -1.6198  -1.4798  -1.3510  -1.2545
    -1.1945  -1.0769  -0.9684  -0.9283  -0.8468  -0.8265  -0.6847  -0.6143
     4.7531   5.0393   5.2915   5.4654   5.8342   5.8434

          k = 0.0000 0.5359 0.2471 ( 30409 PWs)   bands (ev):

   -24.9355 -24.9332 -24.9323 -24.9312  -9.1513  -9.1377  -9.1263  -9.1123
    -9.0975  -9.0685  -9.0622  -9.0441  -9.0349  -9.0166  -9.0117  -9.0044
    -4.6543  -4.3322  -4.2352  -4.1366  -1.6433  -1.5998  -1.3589  -1.3113
    -1.1404  -1.1254  -1.0191  -0.8819  -0.8807  -0.7648  -0.6804  -0.5694
     4.9157   5.0983   5.2384   5.4319   5.6491   5.8123

          k = 0.0000 0.5359 0.4942 ( 30396 PWs)   bands (ev):

   -24.9348 -24.9339 -24.9319 -24.9315  -9.1611  -9.1501  -9.1322  -9.1262
    -9.1009  -9.0836  -9.0408  -9.0303  -9.0247  -9.0146  -9.0080  -9.0062
    -4.5183  -4.3897  -4.1807  -4.1403  -1.7408  -1.6496  -1.4636  -1.3508
    -1.1751  -1.1429  -0.9849  -0.9282  -0.8586  -0.7548  -0.5972  -0.5419
     5.1275   5.1852   5.3667   5.4187   5.7176   5.8356

          k = 0.0000-0.8039 0.0000 ( 30406 PWs)   bands (ev):

   -24.9343 -24.9343 -24.9317 -24.9317  -9.1327  -9.1327  -9.1225  -9.1225
    -9.0716  -9.0716  -9.0568  -9.0568  -9.0481  -9.0481  -9.0085  -9.0085
    -4.4365  -4.4365  -4.2501  -4.2501  -1.4771  -1.4771  -1.4577  -1.4577
    -1.0949  -1.0949  -0.9093  -0.9093  -0.8563  -0.8563  -0.7345  -0.7345
     4.9341   4.9341   5.8090   5.8090   5.8573   5.8573

          k = 0.0000-0.8039 0.2471 ( 30368 PWs)   bands (ev):

   -24.9343 -24.9343 -24.9317 -24.9317  -9.1482  -9.1482  -9.1248  -9.1248
    -9.0822  -9.0822  -9.0512  -9.0512  -9.0286  -9.0286  -9.0083  -9.0083
    -4.4039  -4.4039  -4.2371  -4.2371  -1.6486  -1.6486  -1.4134  -1.4134
    -1.0540  -1.0540  -0.9488  -0.9488  -0.8806  -0.8806  -0.6503  -0.6503
     5.0805   5.0805   5.4522   5.4522   5.8180   5.8180

          k = 0.0000-0.8039 0.4942 ( 30344 PWs)   bands (ev):

   -24.9343 -24.9343 -24.9317 -24.9317  -9.1699  -9.1699  -9.1177  -9.1177
    -9.1036  -9.1036  -9.0353  -9.0353  -9.0147  -9.0147  -9.0071  -9.0071
    -4.3455  -4.3455  -4.2190  -4.2190  -1.8332  -1.8332  -1.3224  -1.3224
    -1.1723  -1.1723  -1.0186  -1.0186  -0.7679  -0.7679  -0.5919  -0.5919
     5.2240   5.2240   5.5217   5.5217   5.8191   5.8191

          k = 0.2500 0.0000 0.0000 ( 30339 PWs)   bands (ev):

   -24.9368 -24.9339 -24.9314 -24.9306  -9.1484  -9.1248  -9.1217  -9.1051
    -9.0765  -9.0729  -9.0404  -9.0402  -9.0384  -9.0153  -9.0111  -9.0064
    -4.9608  -4.4981  -4.1847  -4.0247  -1.6780  -1.3962  -1.2699  -1.1339
    -1.0690  -1.0412  -0.9988  -0.8462  -0.7900  -0.7198  -0.6528  -0.5437
     4.6315   4.7577   4.9584   5.3404   5.3732   5.4218

          k = 0.2500 0.0000 0.2471 ( 30374 PWs)   bands (ev):

   -24.9363 -24.9336 -24.9320 -24.9309  -9.1541  -9.1264  -9.1049  -9.0999
    -9.0840  -9.0701  -9.0478  -9.0390  -9.0372  -9.0307  -9.0150  -9.0014
    -4.8907  -4.4861  -4.1999  -4.0393  -1.6801  -1.3935  -1.2961  -1.1073
    -1.0856  -0.9807  -0.9780  -0.8664  -0.8233  -0.7493  -0.7327  -0.5858
     4.6514   4.9115   4.9612   5.2080   5.3585   5.4765

          k = 0.2500 0.0000 0.4942 ( 30402 PWs)   bands (ev):

   -24.9351 -24.9337 -24.9324 -24.9316  -9.1514  -9.1352  -9.0936  -9.0862
    -9.0708  -9.0696  -9.0614  -9.0540  -9.0459  -9.0432  -9.0103  -9.0040
    -4.7169  -4.5412  -4.1797  -4.0967  -1.6174  -1.4604  -1.2926  -1.0995
    -1.0355  -0.9713  -0.9598  -0.9078  -0.8749  -0.8194  -0.7747  -0.6879
     4.6960   4.8347   5.2935   5.3790   5.4735   5.5810

          k = 0.2500 0.2680 0.0000 ( 30370 PWs)   bands (ev):

   -24.9364 -24.9336 -24.9317 -24.9308  -9.1428  -9.1195  -9.1191  -9.1056
    -9.0831  -9.0738  -9.0589  -9.0415  -9.0363  -9.0203  -9.0116  -9.0094
    -4.8774  -4.4706  -4.1872  -4.0604  -1.6408  -1.3545  -1.2362  -1.2262
    -1.1567  -1.1109  -1.0183  -0.8374  -0.7984  -0.7281  -0.6913  -0.5811
     4.6349   4.8238   5.1509   5.1902   5.6272   5.6511

          k = 0.2500 0.2680 0.2471 ( 30391 PWs)   bands (ev):

   -24.9360 -24.9334 -24.9322 -24.9310  -9.1458  -9.1337  -9.1087  -9.0983
    -9.0834  -9.0758  -9.0617  -9.0502  -9.0292  -9.0199  -9.0185  -9.0049
    -4.8117  -4.4564  -4.1973  -4.0694  -1.6489  -1.4069  -1.3100  -1.1704
    -1.1398  -1.0628  -1.0098  -0.9264  -0.8475  -0.7185  -0.6719  -0.6017
     4.7113   4.8924   5.1139   5.2604   5.5594   5.6109

          k = 0.2500 0.2680 0.4942 ( 30388 PWs)   bands (ev):

   -24.9349 -24.9336 -24.9324 -24.9316  -9.1454  -9.1390  -9.1148  -9.1034
    -9.0855  -9.0687  -9.0595  -9.0463  -9.0338  -9.0295  -9.0123  -9.0058
    -4.6511  -4.4959  -4.1797  -4.1120  -1.6057  -1.4680  -1.3779  -1.2350
    -1.1224  -1.0318  -1.0219  -0.9792  -0.8335  -0.7300  -0.6829  -0.6434
     4.8468   4.9412   5.1987   5.4163   5.4984   5.7014

          k = 0.2500 0.5359 0.0000 ( 30416 PWs)   bands (ev):

   -24.9353 -24.9329 -24.9326 -24.9313  -9.1324  -9.1233  -9.1139  -9.0936
    -9.0877  -9.0875  -9.0737  -9.0469  -9.0400  -9.0272  -9.0250  -9.0109
    -4.6624  -4.3933  -4.2404  -4.1563  -1.5485  -1.4391  -1.2887  -1.2418
    -1.2342  -1.0745  -1.0223  -0.9085  -0.8688  -0.8008  -0.7536  -0.6691
     4.6889   5.1695   5.1856   5.4797   5.8192   5.8820

          k = 0.2500 0.5359 0.2471 ( 30384 PWs)   bands (ev):

   -24.9350 -24.9330 -24.9327 -24.9314  -9.1463  -9.1301  -9.1138  -9.1077
    -9.1048  -9.0743  -9.0565  -9.0512  -9.0311  -9.0225  -9.0181  -9.0126
    -4.6098  -4.3771  -4.2324  -4.1526  -1.6319  -1.4839  -1.3718  -1.2765
    -1.2056  -1.0971  -0.9999  -0.9165  -0.8873  -0.7500  -0.7426  -0.6180
     4.8020   5.0347   5.3877   5.4756   5.7240   5.8764

          k = 0.2500 0.5359 0.4942 ( 30381 PWs)   bands (ev):

   -24.9344 -24.9336 -24.9323 -24.9318  -9.1580  -9.1490  -9.1207  -9.1197
    -9.1024  -9.0848  -9.0399  -9.0324  -9.0259  -9.0213  -9.0149  -9.0108
    -4.4883  -4.3879  -4.2019  -4.1621  -1.7133  -1.6210  -1.4093  -1.3302
    -1.2301  -1.1357  -0.9759  -0.9397  -0.8419  -0.7625  -0.6452  -0.5925
     5.0380   5.0897   5.2721   5.5599   5.8085   5.8973

          k = 0.2500-0.8039 0.0000 ( 30402 PWs)   bands (ev):

   -24.9339 -24.9339 -24.9321 -24.9321  -9.1235  -9.1235  -9.1174  -9.1174
    -9.0745  -9.0745  -9.0631  -9.0631  -9.0453  -9.0453  -9.0172  -9.0172
    -4.4113  -4.4113  -4.2799  -4.2799  -1.4276  -1.4276  -1.4271  -1.4271
    -1.0761  -1.0761  -0.9191  -0.9191  -0.9004  -0.9004  -0.7892  -0.7892
     4.9470   4.9470   5.6056   5.6056   6.0609   6.0609

          k = 0.2500-0.8039 0.2471 ( 30390 PWs)   bands (ev):

   -24.9339 -24.9339 -24.9321 -24.9321  -9.1437  -9.1437  -9.1167  -9.1167
    -9.0869  -9.0869  -9.0473  -9.0473  -9.0324  -9.0324  -9.0170  -9.0170
    -4.3815  -4.3815  -4.2639  -4.2639  -1.5965  -1.5965  -1.3883  -1.3883
    -1.1048  -1.1048  -0.9400  -0.9400  -0.8661  -0.8661  -0.7097  -0.7097
     5.0128   5.0128   5.5248   5.5248   5.8637   5.8637

          k = 0.2500-0.8039 0.4942 ( 30384 PWs)   bands (ev):

   -24.9339 -24.9339 -24.9321 -24.9321  -9.1647  -9.1647  -9.1217  -9.1217
    -9.0953  -9.0953  -9.0300  -9.0300  -9.0223  -9.0223  -9.0148  -9.0148
    -4.3288  -4.3288  -4.2397  -4.2397  -1.7680  -1.7680  -1.3711  -1.3711
    -1.1963  -1.1963  -0.9588  -0.9588  -0.7667  -0.7667  -0.6557  -0.6557
     5.1277   5.1277   5.5037   5.5037   5.9744   5.9744

          k =-0.5000 0.0000 0.0000 ( 30360 PWs)   bands (ev):

   -24.9354 -24.9354 -24.9310 -24.9310  -9.1318  -9.1318  -9.0909  -9.0909
    -9.0901  -9.0901  -9.0400  -9.0400  -9.0383  -9.0383  -9.0106  -9.0106
    -4.7494  -4.7494  -4.1028  -4.1028  -1.4667  -1.4667  -1.1980  -1.1980
    -1.0672  -1.0672  -0.9291  -0.9291  -0.7550  -0.7550  -0.6343  -0.6343
     4.6805   4.6805   5.0349   5.0349   5.4187   5.4187

          k =-0.5000 0.0000 0.2471 ( 30370 PWs)   bands (ev):

   -24.9350 -24.9350 -24.9314 -24.9314  -9.1316  -9.1316  -9.0875  -9.0875
    -9.0861  -9.0861  -9.0503  -9.0503  -9.0424  -9.0424  -9.0085  -9.0085
    -4.6970  -4.6970  -4.1298  -4.1298  -1.4789  -1.4789  -1.1800  -1.1800
    -1.0443  -1.0443  -0.9382  -0.9382  -0.7870  -0.7870  -0.6913  -0.6913
     4.7360   4.7360   5.1751   5.1751   5.2659   5.2660

          k =-0.5000 0.0000 0.4942 ( 30358 PWs)   bands (ev):

   -24.9342 -24.9342 -24.9322 -24.9322  -9.1258  -9.1258  -9.0940  -9.0940
    -9.0771  -9.0771  -9.0571  -9.0571  -9.0514  -9.0514  -9.0083  -9.0083
    -4.5905  -4.5905  -4.1964  -4.1964  -1.4586  -1.4586  -1.1979  -1.1979
    -0.9867  -0.9867  -0.9418  -0.9418  -0.8589  -0.8589  -0.7871  -0.7871
     4.8436   4.8436   5.3206   5.3206   5.4760   5.4760

          k =-0.5000 0.2680 0.0000 ( 30370 PWs)   bands (ev):

   -24.9351 -24.9351 -24.9312 -24.9312  -9.1236  -9.1236  -9.0987  -9.0987
    -9.0875  -9.0875  -9.0562  -9.0562  -9.0302  -9.0302  -9.0158  -9.0158
    -4.6903  -4.6903  -4.1216  -4.1216  -1.4390  -1.4390  -1.2124  -1.2124
    -1.1418  -1.1418  -0.9454  -0.9454  -0.7834  -0.7834  -0.6557  -0.6557
     4.6843   4.6843   5.2076   5.2076   5.4829   5.4829

          k =-0.5000 0.2680 0.2471 ( 30350 PWs)   bands (ev):

   -24.9347 -24.9347 -24.9315 -24.9315  -9.1298  -9.1298  -9.0954  -9.0954
    -9.0823  -9.0823  -9.0638  -9.0638  -9.0325  -9.0325  -9.0122  -9.0122
    -4.6413  -4.6413  -4.1401  -4.1401  -1.4844  -1.4844  -1.2165  -1.2165
    -1.0986  -1.0986  -0.9571  -0.9571  -0.8301  -0.8301  -0.6586  -0.6586
     4.7657   4.7657   5.2260   5.2260   5.4425   5.4425

          k =-0.5000 0.2680 0.4942 ( 30376 PWs)   bands (ev):

   -24.9340 -24.9340 -24.9323 -24.9323  -9.1335  -9.1335  -9.1017  -9.1017
    -9.0767  -9.0767  -9.0663  -9.0663  -9.0344  -9.0344  -9.0102  -9.0102
    -4.5431  -4.5431  -4.1899  -4.1899  -1.5217  -1.5217  -1.2184  -1.2184
    -1.0815  -1.0815  -1.0209  -1.0209  -0.8165  -0.8165  -0.6960  -0.6960
     4.9623   4.9623   5.1874   5.1874   5.5360   5.5361

          k =-0.5000 0.5359 0.0000 ( 30412 PWs)   bands (ev):

   -24.9341 -24.9341 -24.9319 -24.9319  -9.1105  -9.1105  -9.1011  -9.1011
    -9.0971  -9.0971  -9.0644  -9.0644  -9.0307  -9.0307  -9.0280  -9.0280
    -4.5361  -4.5361  -4.1974  -4.1974  -1.4136  -1.4136  -1.2989  -1.2989
    -1.1218  -1.1218  -0.9795  -0.9795  -0.8572  -0.8572  -0.7565  -0.7565
     4.8352   4.8352   5.3921   5.3921   5.8186   5.8186

          k =-0.5000 0.5359 0.2471 ( 30390 PWs)   bands (ev):

   -24.9340 -24.9340 -24.9321 -24.9321  -9.1311  -9.1311  -9.1107  -9.1107
    -9.0812  -9.0812  -9.0612  -9.0612  -9.0288  -9.0288  -9.0221  -9.0221
    -4.4971  -4.4971  -4.1956  -4.1956  -1.5175  -1.5175  -1.3184  -1.3184
    -1.1092  -1.1092  -0.9805  -0.9805  -0.8745  -0.8745  -0.6934  -0.6934
     4.8856   4.8856   5.3763   5.3763   5.8187   5.8187

          k =-0.5000 0.5359 0.4942 ( 30392 PWs)   bands (ev):

   -24.9335 -24.9335 -24.9325 -24.9325  -9.1460  -9.1460  -9.1277  -9.1277
    -9.0697  -9.0697  -9.0574  -9.0574  -9.0244  -9.0244  -9.0155  -9.0155
    -4.4223  -4.4223  -4.2034  -4.2034  -1.6293  -1.6293  -1.3958  -1.3958
    -1.0879  -1.0879  -1.0152  -1.0152  -0.8181  -0.8181  -0.6569  -0.6569
     5.0610   5.0610   5.2644   5.2644   6.0011   6.0011

          k =-0.5000-0.8039 0.0000 ( 30440 PWs)   bands (ev):

   -24.9330 -24.9330 -24.9330 -24.9330  -9.1108  -9.1108  -9.1108  -9.1108
    -9.0761  -9.0761  -9.0761  -9.0761  -9.0339  -9.0339  -9.0339  -9.0339
    -4.3479  -4.3479  -4.3479  -4.3479  -1.3825  -1.3825  -1.3825  -1.3825
    -1.0057  -1.0057  -1.0057  -1.0057  -0.8865  -0.8865  -0.8865  -0.8865
     5.1677   5.1677   5.1677   5.1677   6.3233   6.3234

          k =-0.5000-0.8039 0.2471 ( 30376 PWs)   bands (ev):

   -24.9330 -24.9330 -24.9330 -24.9330  -9.1280  -9.1280  -9.1280  -9.1280
    -9.0653  -9.0653  -9.0653  -9.0653  -9.0290  -9.0290  -9.0290  -9.0290
    -4.3248  -4.3248  -4.3248  -4.3248  -1.4681  -1.4681  -1.4681  -1.4681
    -1.0307  -1.0307  -1.0307  -1.0307  -0.8090  -0.8090  -0.8090  -0.8090
     5.1739   5.1739   5.1739   5.1739   6.2573   6.2574

          k =-0.5000-0.8039 0.4942 ( 30432 PWs)   bands (ev):

   -24.9330 -24.9330 -24.9330 -24.9330  -9.1462  -9.1462  -9.1462  -9.1462
    -9.0580  -9.0580  -9.0580  -9.0580  -9.0206  -9.0206  -9.0206  -9.0206
    -4.2862  -4.2862  -4.2862  -4.2862  -1.5912  -1.5912  -1.5912  -1.5912
    -1.0296  -1.0296  -1.0296  -1.0296  -0.7427  -0.7427  -0.7427  -0.7427
     5.2320   5.2320   5.2320   5.2320   6.1876   6.1876

     the Fermi energy is     2.5178 ev

!    total energy              =    -372.73783957 Ry
     estimated scf accuracy    <          2.5E-09 Ry
     smearing contrib. (-TS)   =       0.00000000 Ry
     internal energy E=F+TS    =    -372.73783957 Ry

     The total energy is F=E-TS. E is the sum of the following terms:
     one-electron contribution =     -79.12316574 Ry
     hartree contribution      =      53.44447749 Ry
     xc contribution           =     -51.46014912 Ry
     ewald contribution        =    -156.79701413 Ry
     one-center paw contrib.   =    -138.80198808 Ry

     convergence has been achieved in   7 iterations

     Forces acting on atoms (cartesian axes, Ry/au):

     atom    1 type  3   force =     0.00010511    0.00000000    0.00008749
     atom    2 type  3   force =    -0.00010511   -0.00000000    0.00008749
     atom    3 type  3   force =    -0.00010511    0.00000000   -0.00008749
     atom    4 type  3   force =     0.00010511    0.00000000   -0.00008749
     atom    5 type  2   force =    -0.00002333    0.00000000   -0.00106912
     atom    6 type  2   force =     0.00002333    0.00000000   -0.00106912
     atom    7 type  2   force =     0.00002333   -0.00000000    0.00106912
     atom    8 type  2   force =    -0.00002333    0.00000000    0.00106912
     atom    9 type  1   force =     0.00049667   -0.00355989    0.00265781
     atom   10 type  1   force =    -0.00049667   -0.00355989    0.00265781
     atom   11 type  1   force =    -0.00049667    0.00355989    0.00265781
     atom   12 type  1   force =    -0.00049667   -0.00355989   -0.00265781
     atom   13 type  1   force =    -0.00049667    0.00355989   -0.00265781
     atom   14 type  1   force =     0.00049667    0.00355989   -0.00265781
     atom   15 type  1   force =     0.00049667   -0.00355989   -0.00265781
     atom   16 type  1   force =     0.00049667    0.00355989    0.00265781
     atom   17 type  1   force =     0.00337095    0.00000000    0.00200201
     atom   18 type  1   force =    -0.00337095    0.00000000    0.00200201
     atom   19 type  1   force =    -0.00337095    0.00000000   -0.00200201
     atom   20 type  1   force =     0.00337095   -0.00000000   -0.00200201
     atom   21 type  1   force =     0.00281732    0.00000000   -0.00266905
     atom   22 type  1   force =    -0.00281732    0.00000000   -0.00266905
     atom   23 type  1   force =    -0.00281732    0.00000000    0.00266905
     atom   24 type  1   force =     0.00281732    0.00000000    0.00266905

     Total force =     0.016919     Total SCF correction =     0.000023


     Computing stress (Cartesian axis) and pressure

          total   stress  (Ry/bohr**3)                   (kbar)     P=        8.26
   0.00005428   0.00000000   0.00000000            7.98        0.00        0.00
   0.00000000   0.00005816   0.00000000            0.00        8.56        0.00
   0.00000000   0.00000000   0.00005598            0.00        0.00        8.24


     Writing output data file ./RbAlH4_experimental.save/

     init_run     :     73.21s CPU     28.23s WALL (       1 calls)
     electrons    :   2016.11s CPU    503.61s WALL (       1 calls)
     forces       :     42.13s CPU      9.03s WALL (       1 calls)
     stress       :    291.99s CPU     81.74s WALL (       1 calls)

     Called by init_run:
     wfcinit      :     67.61s CPU     23.36s WALL (       1 calls)
     potinit      :      1.79s CPU      1.84s WALL (       1 calls)
     hinit0       :      1.91s CPU      1.93s WALL (       1 calls)

     Called by electrons:
     c_bands      :   1831.43s CPU    431.74s WALL (       7 calls)
     sum_band     :    170.48s CPU     61.57s WALL (       7 calls)
     v_of_rho     :      1.74s CPU      1.80s WALL (       8 calls)
     newd         :     11.08s CPU      6.63s WALL (       8 calls)
     PAW_pot      :      2.85s CPU      2.85s WALL (       8 calls)
     mix_rho      :      0.23s CPU      0.25s WALL (       7 calls)

     Called by c_bands:
     init_us_2    :     68.77s CPU     18.49s WALL (     612 calls)
     cegterg      :   1731.92s CPU    384.58s WALL (     252 calls)

     Called by *egterg:
     cdiaghg      :     20.35s CPU      4.23s WALL (    1569 calls)
     h_psi        :    924.43s CPU    303.15s WALL (    1605 calls)
     s_psi        :    266.70s CPU     20.80s WALL (    1605 calls)
     g_psi        :     23.38s CPU      5.72s WALL (    1317 calls)

     Called by h_psi:
     h_psi:calbec :    168.61s CPU     15.61s WALL (    1605 calls)
     vloc_psi     :    470.74s CPU    264.21s WALL (    1605 calls)
     add_vuspsi   :    277.61s CPU     20.62s WALL (    1605 calls)

     General routines
     calbec       :    236.88s CPU     21.61s WALL (    2037 calls)
     fft          :      0.89s CPU      0.84s WALL (     127 calls)
     ffts         :      0.42s CPU      0.19s WALL (      15 calls)
     fftw         :    438.62s CPU    266.34s WALL (   69628 calls)
     interpolate  :      0.18s CPU      0.18s WALL (       8 calls)

     Parallel routines

     PWSCF        :  40m23.77s CPU  10m23.55s WALL


   This run was terminated on:  19:28:27  15Nov2023            

=------------------------------------------------------------------------------=
   JOB DONE.
=------------------------------------------------------------------------------=
