
     Program PWSCF v.6.7MaX starts on 15Nov2023 at 18:54:16 

     This program is part of the open-source Quantum ESPRESSO suite
     for quantum simulation of materials; please cite
         "P. Giannozzi et al., J. Phys.:Condens. Matter 21 395502 (2009);
         "P. Giannozzi et al., J. Phys.:Condens. Matter 29 465901 (2017);
          URL http://www.quantum-espresso.org", 
     in publications or presentations arising from this work. More details at
     http://www.quantum-espresso.org/quote

     Parallel version (MPI), running on     1 processors

     MPI processes distributed on     1 nodes
     Reading input from RbH.in

     Current dimensions of program PWSCF are:
     Max number of different atomic species (ntypx) = 10
     Max number of k-points (npk) =  40000
     Max angular momentum in pseudopotentials (lmaxx) =  3
     Message from routine volume:
     axis vectors are left-handed
     Message from routine read_pp_mesh:
     mesh size missing, using the one in header

     IMPORTANT: XC functional enforced from input :
     Exchange-correlation= PBE
                           (   1   4   3   4   0   0   0)
     Any further DFT definition will be discarded
     Please, verify this is what you really want


     Subspace diagonalization in iterative solution of the eigenvalue problem:
     a serial algorithm will be used

     Message from routine setup:
     using ibrav=0 with symmetry is DISCOURAGED, use correct ibrav instead

     G-vector sticks info
     --------------------
     sticks:   dense  smooth     PW     G-vecs:    dense   smooth      PW
     Sum        1663    1345    379                44975    32143    5029



     bravais-lattice index     =            0
     lattice parameter (alat)  =      11.3538  a.u.
     unit-cell volume          =     365.8989 (a.u.)^3
     number of atoms/cell      =            2
     number of atomic types    =            2
     number of electrons       =        10.00
     number of Kohn-Sham states=            9
     kinetic-energy cutoff     =      75.0000  Ry
     charge density cutoff     =     375.0000  Ry
     scf convergence threshold =      1.0E-08
     mixing beta               =       0.7000
     number of iterations used =            8  plain     mixing
     Exchange-correlation= PBE
                           (   1   4   3   4   0   0   0)

     celldm(1)=  11.353777  celldm(2)=   0.000000  celldm(3)=   0.000000
     celldm(4)=   0.000000  celldm(5)=   0.000000  celldm(6)=   0.000000

     crystal axes: (cart. coord. in units of alat)
               a(1) = (   0.500000   0.500000   0.000000 )  
               a(2) = (   0.500000   0.000000   0.500000 )  
               a(3) = (   0.000000   0.500000   0.500000 )  

     reciprocal axes: (cart. coord. in units 2 pi/alat)
               b(1) = (  1.000000  1.000000 -1.000000 )  
               b(2) = (  1.000000 -1.000000  1.000000 )  
               b(3) = ( -1.000000  1.000000  1.000000 )  


     PseudoPot. # 1 for H  read from file:
     ../../pseudopotentials/H.pbe-rrkjus_psl.1.0.0.UPF
     MD5 check sum: f52b6d4d1c606e5624b1dc7b2218f220
     Pseudo is Ultrasoft, Zval =  1.0
     Generated using "atomic" code by A. Dal Corso  v.5.1
     Using radial grid of  929 points,  2 beta functions with: 
                l(1) =   0
                l(2) =   0
     Q(r) pseudized with 0 coefficients 


     PseudoPot. # 2 for Rb read from file:
     ../../pseudopotentials/Rb_ONCV_PBE-1.0.oncvpsp.upf
     MD5 check sum: 55a5172d6bfbce6759a58e35d43f6aa9
     Pseudo is Norm-conserving, Zval =  9.0
     Generated using ONCVPSP code by D. R. Hamann
     Using radial grid of 2308 points,  6 beta functions with: 
                l(1) =   0
                l(2) =   0
                l(3) =   1
                l(4) =   1
                l(5) =   2
                l(6) =   2

     atomic species   valence    mass     pseudopotential
        H              1.00     1.00750     H ( 1.00)
        Rb             9.00    85.46780     Rb( 1.00)

     48 Sym. Ops., with inversion, found



   Cartesian axes

     site n.     atom                  positions (alat units)
         1           Rb  tau(   1) = (   0.5000000   0.5000000   0.5000000  )
         2           H   tau(   2) = (   0.0000000   0.0000000   0.0000000  )

     number of k points=    16  Marzari-Vanderbilt smearing, width (Ry)=  0.0050
                       cart. coord. in units 2pi/alat
        k(    1) = (   0.0000000   0.0000000   0.0000000), wk =   0.0092593
        k(    2) = (  -0.1666667   0.1666667   0.1666667), wk =   0.0740741
        k(    3) = (  -0.3333333   0.3333333   0.3333333), wk =   0.0740741
        k(    4) = (   0.5000000  -0.5000000  -0.5000000), wk =   0.0370370
        k(    5) = (   0.0000000   0.0000000   0.3333333), wk =   0.0555556
        k(    6) = (  -0.1666667   0.1666667   0.5000000), wk =   0.2222222
        k(    7) = (   0.6666667  -0.6666667  -0.3333333), wk =   0.2222222
        k(    8) = (   0.5000000  -0.5000000  -0.1666667), wk =   0.2222222
        k(    9) = (   0.3333333  -0.3333333   0.0000000), wk =   0.1111111
        k(   10) = (   0.0000000   0.0000000   0.6666667), wk =   0.0555556
        k(   11) = (   0.8333333  -0.8333333  -0.1666667), wk =   0.2222222
        k(   12) = (   0.6666667  -0.6666667  -0.0000000), wk =   0.1111111
        k(   13) = (   0.0000000   0.0000000  -1.0000000), wk =   0.0277778
        k(   14) = (   1.0000000  -0.6666667  -0.3333333), wk =   0.2222222
        k(   15) = (   0.8333333  -0.5000000  -0.1666667), wk =   0.2222222
        k(   16) = (   0.0000000   0.3333333  -1.0000000), wk =   0.1111111

     Dense  grid:    44975 G-vectors     FFT dimensions: (  50,  50,  50)

     Smooth grid:    32143 G-vectors     FFT dimensions: (  45,  45,  45)

     Estimated max dynamical RAM per process >      64.91 MB

     Initial potential from superposition of free atoms

     starting charge    9.97522, renormalised to   10.00000
     Starting wfcs are    6 randomized atomic wfcs +    3 random wfcs

     total cpu time spent up to now is        0.5 secs

     Self-consistent Calculation

     iteration #  1     ecut=    75.00 Ry     beta= 0.70
     Davidson diagonalization with overlap
     ethr =  1.00E-02,  avg # of iterations =  5.6

     total cpu time spent up to now is        1.9 secs

     total energy              =     -50.07781240 Ry
     estimated scf accuracy    <       0.15665398 Ry

     iteration #  2     ecut=    75.00 Ry     beta= 0.70
     Davidson diagonalization with overlap
     ethr =  1.57E-03,  avg # of iterations =  2.6

     total cpu time spent up to now is        3.0 secs

     total energy              =     -50.11276484 Ry
     estimated scf accuracy    <       0.01015276 Ry

     iteration #  3     ecut=    75.00 Ry     beta= 0.70
     Davidson diagonalization with overlap
     ethr =  1.02E-04,  avg # of iterations =  4.5

     total cpu time spent up to now is        4.2 secs

     total energy              =     -50.11471784 Ry
     estimated scf accuracy    <       0.00024599 Ry

     iteration #  4     ecut=    75.00 Ry     beta= 0.70
     Davidson diagonalization with overlap
     ethr =  2.46E-06,  avg # of iterations =  5.6

     total cpu time spent up to now is        5.4 secs

     total energy              =     -50.11476086 Ry
     estimated scf accuracy    <       0.00000389 Ry

     iteration #  5     ecut=    75.00 Ry     beta= 0.70
     Davidson diagonalization with overlap
     ethr =  3.89E-08,  avg # of iterations =  2.1

     total cpu time spent up to now is        6.4 secs

     total energy              =     -50.11476263 Ry
     estimated scf accuracy    <       0.00000009 Ry

     iteration #  6     ecut=    75.00 Ry     beta= 0.70
     Davidson diagonalization with overlap
     ethr =  9.16E-10,  avg # of iterations =  2.7

     total cpu time spent up to now is        7.5 secs

     End of self-consistent calculation

          k = 0.0000 0.0000 0.0000 (  4015 PWs)   bands (ev):

   -23.9437  -7.8309  -7.8309  -7.8309   0.3405   8.9868   9.0723   9.0723
     9.0723

          k =-0.1667 0.1667 0.1667 (  4017 PWs)   bands (ev):

   -23.9338  -7.9685  -7.8454  -7.8454   0.7266   7.7551   9.0639   9.1848
     9.1848

          k =-0.3333 0.3333 0.3333 (  3996 PWs)   bands (ev):

   -23.9138  -8.2240  -7.8739  -7.8739   1.6142   5.9831   8.7533   8.7533
     9.5749

          k = 0.5000-0.5000-0.5000 (  4044 PWs)   bands (ev):

   -23.9037  -8.3435  -7.8880  -7.8880   2.2053   5.1162   8.4775   8.4775
    10.3314

          k = 0.0000 0.0000 0.3333 (  3983 PWs)   bands (ev):

   -23.9305  -7.9640  -7.8730  -7.8730   0.8102   7.8918   8.2072   9.3241
     9.3241

          k =-0.1667 0.1667 0.5000 (  4003 PWs)   bands (ev):

   -23.9139  -8.1468  -7.9097  -7.9080   1.4006   6.6731   7.7912   9.2921
    10.0223

          k = 0.6667-0.6667-0.3333 (  4004 PWs)   bands (ev):

   -23.9005  -8.2856  -7.9609  -7.9157   1.9967   5.6880   7.8805   8.8925
    10.5740

          k = 0.5000-0.5000-0.1667 (  4005 PWs)   bands (ev):

   -23.9038  -8.2505  -7.9778  -7.8885   1.9075   5.8563   7.7356   8.8712
    10.9944

          k = 0.3333-0.3333 0.0000 (  4007 PWs)   bands (ev):

   -23.9205  -8.0932  -7.9225  -7.8532   1.2335   7.0192   7.7580   9.3798
     9.7823

          k = 0.0000 0.0000 0.6667 (  4040 PWs)   bands (ev):

   -23.9041  -8.1820  -7.9560  -7.9560   1.4163   7.1229   7.1595  10.1891
    10.1891

          k = 0.8333-0.8333-0.1667 (  4026 PWs)   bands (ev):

   -23.8942  -8.2320  -8.0327  -7.9701   1.6259   6.7685   7.3739  10.0343
    10.1942

          k = 0.6667-0.6667-0.0000 (  4017 PWs)   bands (ev):

   -23.8940  -8.1694  -8.1439  -7.9367   1.8926   6.3825   7.3241   9.3947
    10.5703

          k = 0.0000 0.0000-1.0000 (  3984 PWs)   bands (ev):

   -23.8910  -8.2711  -7.9969  -7.9969   1.4531   6.7736   7.6951  11.2567
    11.2567

          k = 1.0000-0.6667-0.3333 (  4023 PWs)   bands (ev):

   -23.9007  -8.2032  -8.0197  -7.9323   1.7312   6.5857   7.1904   9.2422
    10.6655

          k = 0.8333-0.5000-0.1667 (  4012 PWs)   bands (ev):

   -23.8940  -8.2127  -8.0763  -7.9611   1.8927   6.3927   7.3895   8.9765
    11.1933

          k = 0.0000 0.3333-1.0000 (  4022 PWs)   bands (ev):

   -23.8908  -8.2045  -8.0675  -8.0125   1.7014   6.9600   7.4134   8.8476
    11.7922

     the Fermi energy is     2.9262 ev

!    total energy              =     -50.11476272 Ry
     estimated scf accuracy    <          2.3E-09 Ry
     smearing contrib. (-TS)   =       0.00000000 Ry
     internal energy E=F+TS    =     -50.11476272 Ry

     The total energy is F=E-TS. E is the sum of the following terms:
     one-electron contribution =     -17.98760222 Ry
     hartree contribution      =      10.88695629 Ry
     xc contribution           =      -8.17338625 Ry
     ewald contribution        =     -34.84073054 Ry

     convergence has been achieved in   6 iterations

     Forces acting on atoms (cartesian axes, Ry/au):

     atom    1 type  2   force =     0.00000000    0.00000000    0.00000000
     atom    2 type  1   force =     0.00000000    0.00000000    0.00000000

     Total force =     0.000000     Total SCF correction =     0.000000


     Computing stress (Cartesian axis) and pressure

          total   stress  (Ry/bohr**3)                   (kbar)     P=        2.57
   0.00001744   0.00000000   0.00000000            2.57        0.00        0.00
   0.00000000   0.00001744  -0.00000000            0.00        2.57       -0.00
  -0.00000000  -0.00000000   0.00001744           -0.00       -0.00        2.57


     Writing output data file ./RbH_experimental.save/

     init_run     :      1.26s CPU      0.49s WALL (       1 calls)
     electrons    :     25.80s CPU      6.99s WALL (       1 calls)
     forces       :      0.17s CPU      0.06s WALL (       1 calls)
     stress       :      1.84s CPU      0.54s WALL (       1 calls)

     Called by init_run:
     wfcinit      :      1.07s CPU      0.29s WALL (       1 calls)
     potinit      :      0.04s CPU      0.05s WALL (       1 calls)
     hinit0       :      0.12s CPU      0.12s WALL (       1 calls)

     Called by electrons:
     c_bands      :     21.29s CPU      5.53s WALL (       6 calls)
     sum_band     :      2.98s CPU      0.97s WALL (       6 calls)
     v_of_rho     :      1.06s CPU      0.34s WALL (       7 calls)
     newd         :      0.31s CPU      0.13s WALL (       7 calls)
     mix_rho      :      0.11s CPU      0.03s WALL (       6 calls)

     Called by c_bands:
     init_us_2    :      0.84s CPU      0.22s WALL (     240 calls)
     cegterg      :     19.37s CPU      5.05s WALL (      96 calls)

     Called by *egterg:
     cdiaghg      :      0.17s CPU      0.04s WALL (     464 calls)
     h_psi        :     18.55s CPU      4.91s WALL (     480 calls)
     s_psi        :      0.30s CPU      0.07s WALL (     480 calls)
     g_psi        :      0.20s CPU      0.04s WALL (     368 calls)

     Called by h_psi:
     h_psi:calbec :      0.61s CPU      0.19s WALL (     480 calls)
     vloc_psi     :     17.25s CPU      4.51s WALL (     480 calls)
     add_vuspsi   :      0.59s CPU      0.19s WALL (     480 calls)

     General routines
     calbec       :      0.69s CPU      0.21s WALL (     656 calls)
     fft          :      0.51s CPU      0.16s WALL (      97 calls)
     ffts         :      0.03s CPU      0.01s WALL (      13 calls)
     fftw         :     16.49s CPU      4.39s WALL (    5918 calls)
     interpolate  :      0.08s CPU      0.02s WALL (       7 calls)

     Parallel routines

     PWSCF        :     29.23s CPU      8.15s WALL


   This run was terminated on:  18:54:24  15Nov2023            

=------------------------------------------------------------------------------=
   JOB DONE.
=------------------------------------------------------------------------------=
